<?xml version="1.0" encoding="UTF-8"?>

<!-- generated on 09/04/20 15:09:26 by Eclipse SUMO GUI Version 1.6.0
<configuration xmlns:xsi="http://www.w3.org/2001/XMLSchema-instance" xsi:noNamespaceSchemaLocation="http://sumo.dlr.de/xsd/sumoConfiguration.xsd">

    <input>
        <net-file value="C:\Users\TLOU%20LEBELO\Documents\GitHub\Traffic-Light-Optimization\tl_optimization\main_app\simulation\generic\4way.net.xml"/>
        <route-files value="C:\Users\TLOU%20LEBELO\Documents\GitHub\Traffic-Light-Optimization\tl_optimization\main_app\simulation\generic\4way.rou.xml"/>
        <additional-files value="C:\Users\TLOU%20LEBELO\Documents\GitHub\Traffic-Light-Optimization\tl_optimization\main_app\simulation\generic\4way.add.xml"/>
    </input>

    <output>
        <tripinfo-output value="C:\Users\TLOU%20LEBELO\Documents\GitHub\Traffic-Light-Optimization\tl_optimization\main_app\simulation\generictripinfo.xml"/>
    </output>

    <traci_server>
        <remote-port value="60707"/>
    </traci_server>

</configuration>
-->

<tripinfos xmlns:xsi="http://www.w3.org/2001/XMLSchema-instance" xsi:noNamespaceSchemaLocation="http://sumo.dlr.de/xsd/tripinfo_file.xsd">
</tripinfos>
id="0" depart="0.00" departLane="-gneE9_0" departPos="5.10" departSpeed="0.00" departDelay="0.00" arrival="15.00" arrivalLane="-gneE14_0" arrivalPos="76.83" arrivalSpeed="14.39" duration="15.00" routeLength="125.29" waitingTime="0.00" waitingCount="0" stopTime="0.00" timeLoss="5.52" rerouteNo="0" devices="tripinfo_0" vType="DEFAULT_VEHTYPE" speedFactor="1.06" vaporized=""/>
    <tripinfo id="5" depart="7.00" departLane="-gneE9_0" departPos="5.10" departSpeed="0.00" departDelay="2.00" arrival="17.00" arrivalLane="gneE12_0" arrivalPos="42.58" arrivalSpeed="13.05" duration="10.00" routeLength="91.21" waitingTime="0.00" waitingCount="0" stopTime="0.00" timeLoss="3.22" rerouteNo="0" devices="tripinfo_5" vType="DEFAULT_VEHTYPE" speedFactor="1.03" vaporized=""/>
    <tripinfo id="4" depart="4.00" departLane="-gneE9_0" departPos="5.10" departSpeed="0.00" departDelay="0.00" arrival="18.00" arrivalLane="gneE10_0" arrivalPos="87.42" arrivalSpeed="14.78" duration="14.00" routeLength="130.60" waitingTime="0.00" waitingCount="0" stopTime="0.00" timeLoss="4.44" rerouteNo="0" devices="tripinfo_4" vType="DEFAULT_VEHTYPE" speedFactor="1.08" vaporized=""/>
    <tripinfo id="3" depart="5.00" departLane="-gneE12_0" departPos="5.10" departSpeed="0.00" departDelay="2.00" arrival="23.00" arrivalLane="gneE9_0" arrivalPos="39.25" arrivalSpeed="13.96" duration="18.00" routeLength="91.36" waitingTime="1.00" waitingCount="1" stopTime="0.00" timeLoss="10.93" rerouteNo="0" devices="tripinfo_3" vType="DEFAULT_VEHTYPE" speedFactor="1.01" vaporized=""/>
    <tripinfo id="2" depart="2.00" departLane="-gneE12_0" departPos="5.10" departSpeed="0.00" departDelay="0.00" arrival="25.00" arrivalLane="gneE10_0" arrivalPos="87.42" arrivalSpeed="12.12" duration="23.00" routeLength="139.20" waitingTime="3.00" waitingCount="1" stopTime="0.00" timeLoss="10.59" rerouteNo="0" devices="tripinfo_2" vType="DEFAULT_VEHTYPE" speedFactor="0.94" vaporized=""/>
    <tripinfo id="16" depart="16.00" departLane="-gneE12_0" departPos="5.10" departSpeed="0.00" departDelay="0.00" arrival="26.00" arrivalLane="gneE9_0" arrivalPos="39.25" arrivalSpeed="13.82" duration="10.00" routeLength="91.36" waitingTime="0.00" waitingCount="0" stopTime="0.00" timeLoss="3.67" rerouteNo="0" devices="tripinfo_16" vType="DEFAULT_VEHTYPE" speedFactor="1.05" vaporized=""/>
    <tripinfo id="11" depart="11.00" departLane="-gneE12_0" departPos="5.10" departSpeed="0.00" departDelay="0.00" arrival="30.00" arrivalLane="gneE10_0" arrivalPos="87.42" arrivalSpeed="11.87" duration="19.00" routeLength="139.20" waitingTime="0.00" waitingCount="0" stopTime="0.00" timeLoss="6.30" rerouteNo="0" devices="tripinfo_11" vType="DEFAULT_VEHTYPE" speedFactor="0.89" vaporized=""/>
    <tripinfo id="10" depart="10.00" departLane="-gneE9_0" departPos="5.10" departSpeed="0.00" departDelay="0.00" arrival="34.00" arrivalLane="-gneE14_0" arrivalPos="76.83" arrivalSpeed="13.66" duration="24.00" routeLength="125.29" waitingTime="5.00" waitingCount="1" stopTime="0.00" timeLoss="13.72" rerouteNo="0" devices="tripinfo_10" vType="DEFAULT_VEHTYPE" speedFactor="1.05" vaporized=""/>
    <tripinfo id="17" depart="19.00" departLane="-gneE12_0" departPos="5.10" departSpeed="0.00" departDelay="2.00" arrival="35.00" arrivalLane="gneE10_0" arrivalPos="87.42" arrivalSpeed="15.51" duration="16.00" routeLength="139.20" waitingTime="0.00" waitingCount="0" stopTime="0.00" timeLoss="5.59" rerouteNo="0" devices="tripinfo_17" vType="DEFAULT_VEHTYPE" speedFactor="1.12" vaporized=""/>
    <tripinfo id="18" depart="22.00" departLane="-gneE12_0" departPos="5.10" departSpeed="0.00" departDelay="4.00" arrival="37.00" arrivalLane="-gneE14_0" arrivalPos="76.83" arrivalSpeed="12.96" duration="15.00" routeLength="123.80" waitingTime="0.00" waitingCount="0" stopTime="0.00" timeLoss="5.05" rerouteNo="0" devices="tripinfo_18" vType="DEFAULT_VEHTYPE" speedFactor="0.99" vaporized=""/>
    <tripinfo id="19" depart="25.00" departLane="-gneE12_0" departPos="5.10" departSpeed="0.00" departDelay="6.00" arrival="40.00" arrivalLane="-gneE14_0" arrivalPos="76.83" arrivalSpeed="12.55" duration="15.00" routeLength="123.80" waitingTime="0.00" waitingCount="0" stopTime="0.00" timeLoss="4.81" rerouteNo="0" devices="tripinfo_19" vType="DEFAULT_VEHTYPE" speedFactor="0.93" vaporized=""/>
    <tripinfo id="30" depart="30.00" departLane="-gneE9_0" departPos="5.10" departSpeed="0.00" departDelay="0.00" arrival="47.00" arrivalLane="gneE10_0" arrivalPos="87.42" arrivalSpeed="11.74" duration="17.00" routeLength="130.60" waitingTime="0.00" waitingCount="0" stopTime="0.00" timeLoss="5.16" rerouteNo="0" devices="tripinfo_30" vType="DEFAULT_VEHTYPE" speedFactor="0.89" vaporized=""/>
    <tripinfo id="12" depart="12.00" departLane="-gneE10_0" departPos="5.10" departSpeed="0.00" departDelay="0.00" arrival="55.00" arrivalLane="gneE12_0" arrivalPos="42.58" arrivalSpeed="11.77" duration="43.00" routeLength="133.99" waitingTime="22.00" waitingCount="1" stopTime="0.00" timeLoss="31.48" rerouteNo="0" devices="tripinfo_12" vType="DEFAULT_VEHTYPE" speedFactor="0.94" vaporized=""/>
    <tripinfo id="14" depart="14.00" departLane="gneE14_0" departPos="5.10" departSpeed="0.00" departDelay="0.00" arrival="55.00" arrivalLane="gneE10_0" arrivalPos="87.42" arrivalSpeed="14.90" duration="41.00" routeLength="173.64" waitingTime="20.00" waitingCount="1" stopTime="0.00" timeLoss="29.12" rerouteNo="0" devices="tripinfo_14" vType="DEFAULT_VEHTYPE" speedFactor="1.09" vaporized=""/>
    <tripinfo id="8" depart="8.00" departLane="-gneE10_0" departPos="5.10" departSpeed="0.00" departDelay="0.00" arrival="56.00" arrivalLane="-gneE14_0" arrivalPos="76.83" arrivalSpeed="10.91" duration="48.00" routeLength="173.82" waitingTime="23.00" waitingCount="1" stopTime="0.00" timeLoss="32.07" rerouteNo="0" devices="tripinfo_8" vType="DEFAULT_VEHTYPE" speedFactor="0.83" vaporized=""/>
    <tripinfo id="15" depart="17.00" departLane="gneE14_0" departPos="5.10" departSpeed="0.00" departDelay="2.00" arrival="57.00" arrivalLane="gneE10_0" arrivalPos="87.42" arrivalSpeed="13.42" duration="40.00" routeLength="173.64" waitingTime="17.00" waitingCount="1" stopTime="0.00" timeLoss="27.47" rerouteNo="0" devices="tripinfo_15" vType="DEFAULT_VEHTYPE" speedFactor="1.03" vaporized=""/>
    <tripinfo id="13" depart="15.00" departLane="-gneE10_0" departPos="5.10" departSpeed="0.00" departDelay="2.00" arrival="60.00" arrivalLane="-gneE14_0" arrivalPos="76.83" arrivalSpeed="10.66" duration="45.00" routeLength="173.82" waitingTime="21.00" waitingCount="1" stopTime="0.00" timeLoss="29.83" rerouteNo="0" devices="tripinfo_13" vType="DEFAULT_VEHTYPE" speedFactor="0.86" vaporized=""/>
    <tripinfo id="22" depart="22.00" departLane="-gneE10_0" departPos="5.10" departSpeed="0.00" departDelay="0.00" arrival="62.00" arrivalLane="-gneE14_0" arrivalPos="76.83" arrivalSpeed="12.90" duration="40.00" routeLength="173.82" waitingTime="14.00" waitingCount="1" stopTime="0.00" timeLoss="25.79" rerouteNo="0" devices="tripinfo_22" vType="DEFAULT_VEHTYPE" speedFactor="0.94" vaporized=""/>
    <tripinfo id="24" depart="25.00" departLane="-gneE10_0" departPos="5.10" departSpeed="0.00" departDelay="1.00" arrival="63.00" arrivalLane="-gneE14_0" arrivalPos="76.83" arrivalSpeed="14.15" duration="38.00" routeLength="173.82" waitingTime="12.00" waitingCount="1" stopTime="0.00" timeLoss="26.96" rerouteNo="0" devices="tripinfo_24" vType="DEFAULT_VEHTYPE" speedFactor="1.16" vaporized=""/>
    <tripinfo id="25" depart="28.00" departLane="-gneE10_0" departPos="5.10" departSpeed="0.00" departDelay="3.00" arrival="63.00" arrivalLane="gneE9_0" arrivalPos="39.25" arrivalSpeed="13.90" duration="35.00" routeLength="135.90" waitingTime="11.00" waitingCount="1" stopTime="0.00" timeLoss="24.74" rerouteNo="0" devices="tripinfo_25" vType="DEFAULT_VEHTYPE" speedFactor="1.02" vaporized=""/>
    <tripinfo id="26" depart="31.00" departLane="-gneE10_0" departPos="5.10" departSpeed="0.00" departDelay="5.00" arrival="68.00" arrivalLane="-gneE14_0" arrivalPos="76.83" arrivalSpeed="13.93" duration="37.00" routeLength="173.82" waitingTime="10.00" waitingCount="1" stopTime="0.00" timeLoss="23.95" rerouteNo="0" devices="tripinfo_26" vType="DEFAULT_VEHTYPE" speedFactor="1.01" vaporized=""/>
    <tripinfo id="21" depart="21.00" departLane="gneE14_0" departPos="5.10" departSpeed="0.00" departDelay="0.00" arrival="69.00" arrivalLane="gneE12_0" arrivalPos="42.58" arrivalSpeed="11.15" duration="48.00" routeLength="128.70" waitingTime="23.00" waitingCount="2" stopTime="0.00" timeLoss="36.38" rerouteNo="0" devices="tripinfo_21" vType="DEFAULT_VEHTYPE" speedFactor="0.88" vaporized=""/>
    <tripinfo id="23" depart="24.00" departLane="gneE14_0" departPos="5.10" departSpeed="0.00" departDelay="1.00" arrival="75.00" arrivalLane="gneE10_0" arrivalPos="87.42" arrivalSpeed="12.25" duration="51.00" routeLength="173.64" waitingTime="22.00" waitingCount="2" stopTime="0.00" timeLoss="37.33" rerouteNo="0" devices="tripinfo_23" vType="DEFAULT_VEHTYPE" speedFactor="0.94" vaporized=""/>
    <tripinfo id="28" depart="28.00" departLane="gneE14_0" departPos="5.10" departSpeed="0.00" departDelay="0.00" arrival="77.00" arrivalLane="gneE10_0" arrivalPos="87.42" arrivalSpeed="13.05" duration="49.00" routeLength="173.64" waitingTime="19.00" waitingCount="2" stopTime="0.00" timeLoss="35.78" rerouteNo="0" devices="tripinfo_28" vType="DEFAULT_VEHTYPE" speedFactor="0.98" vaporized=""/>
    <tripinfo id="37" depart="37.00" departLane="gneE14_0" departPos="5.10" departSpeed="0.00" departDelay="0.00" arrival="79.00" arrivalLane="gneE10_0" arrivalPos="87.42" arrivalSpeed="11.74" duration="42.00" routeLength="173.64" waitingTime="10.00" waitingCount="2" stopTime="0.00" timeLoss="28.15" rerouteNo="0" devices="tripinfo_37" vType="DEFAULT_VEHTYPE" speedFactor="0.93" vaporized=""/>
    <tripinfo id="43" depart="43.00" departLane="gneE14_0" departPos="5.10" departSpeed="0.00" departDelay="0.00" arrival="81.00" arrivalLane="gneE10_0" arrivalPos="87.42" arrivalSpeed="13.76" duration="38.00" routeLength="173.64" waitingTime="5.00" waitingCount="1" stopTime="0.00" timeLoss="24.95" rerouteNo="0" devices="tripinfo_43" vType="DEFAULT_VEHTYPE" speedFactor="1.02" vaporized=""/>
    <tripinfo id="44" depart="46.00" departLane="gneE14_0" departPos="5.10" departSpeed="0.00" departDelay="2.00" arrival="81.00" arrivalLane="gneE9_0" arrivalPos="39.25" arrivalSpeed="12.50" duration="35.00" routeLength="120.05" waitingTime="6.00" waitingCount="1" stopTime="0.00" timeLoss="24.71" rerouteNo="0" devices="tripinfo_44" vType="DEFAULT_VEHTYPE" speedFactor="0.97" vaporized=""/>
    <tripinfo id="53" depart="53.00" departLane="gneE14_0" departPos="5.10" departSpeed="0.00" departDelay="0.00" arrival="83.00" arrivalLane="gneE9_0" arrivalPos="39.25" arrivalSpeed="14.04" duration="30.00" routeLength="120.05" waitingTime="6.00" waitingCount="1" stopTime="0.00" timeLoss="21.23" rerouteNo="0" devices="tripinfo_53" vType="DEFAULT_VEHTYPE" speedFactor="1.09" vaporized=""/>
    <tripinfo id="66" depart="66.00" departLane="gneE14_0" departPos="5.10" departSpeed="0.00" departDelay="0.00" arrival="85.00" arrivalLane="gneE9_0" arrivalPos="39.25" arrivalSpeed="14.46" duration="19.00" routeLength="120.05" waitingTime="0.00" waitingCount="0" stopTime="0.00" timeLoss="10.65" rerouteNo="0" devices="tripinfo_66" vType="DEFAULT_VEHTYPE" speedFactor="1.17" vaporized=""/>
    <tripinfo id="70" depart="70.00" departLane="gneE14_0" departPos="5.10" departSpeed="0.00" departDelay="0.00" arrival="89.00" arrivalLane="gneE12_0" arrivalPos="42.58" arrivalSpeed="13.82" duration="19.00" routeLength="128.70" waitingTime="0.00" waitingCount="0" stopTime="0.00" timeLoss="8.39" rerouteNo="0" devices="tripinfo_70" vType="DEFAULT_VEHTYPE" speedFactor="1.00" vaporized=""/>
    <tripinfo id="73" depart="73.00" departLane="gneE14_0" departPos="5.10" departSpeed="0.00" departDelay="0.00" arrival="93.00" arrivalLane="gneE10_0" arrivalPos="87.42" arrivalSpeed="15.80" duration="20.00" routeLength="173.64" waitingTime="0.00" waitingCount="0" stopTime="0.00" timeLoss="8.37" rerouteNo="0" devices="tripinfo_73" vType="DEFAULT_VEHTYPE" speedFactor="1.14" vaporized=""/>
    <tripinfo id="31" depart="34.00" departLane="-gneE10_0" departPos="5.10" departSpeed="0.00" departDelay="3.00" arrival="94.00" arrivalLane="gneE9_0" arrivalPos="39.25" arrivalSpeed="10.97" duration="60.00" routeLength="135.90" waitingTime="31.00" waitingCount="2" stopTime="0.00" timeLoss="46.84" rerouteNo="0" devices="tripinfo_31" vType="DEFAULT_VEHTYPE" speedFactor="0.83" vaporized=""/>
    <tripinfo id="39" depart="39.00" departLane="-gneE12_0" departPos="5.10" departSpeed="0.00" departDelay="0.00" arrival="98.00" arrivalLane="-gneE14_0" arrivalPos="76.83" arrivalSpeed="15.75" duration="59.00" routeLength="123.80" waitingTime="43.00" waitingCount="1" stopTime="0.00" timeLoss="50.79" rerouteNo="0" devices="tripinfo_39" vType="DEFAULT_VEHTYPE" speedFactor="1.15" vaporized=""/>
    <tripinfo id="38" depart="38.00" departLane="-gneE9_0" departPos="5.10" departSpeed="0.00" departDelay="0.00" arrival="99.00" arrivalLane="gneE10_0" arrivalPos="87.42" arrivalSpeed="16.08" duration="61.00" routeLength="130.60" waitingTime="43.00" waitingCount="1" stopTime="0.00" timeLoss="52.04" rerouteNo="0" devices="tripinfo_38" vType="DEFAULT_VEHTYPE" speedFactor="1.18" vaporized=""/>
</tripinfos>
