<?xml version="1.0" encoding="UTF-8"?>

<!-- generated on Wed 19 Aug 2020 18:12:06 by Eclipse SUMO GUI Version 1.4.0
<configuration xmlns:xsi="http://www.w3.org/2001/XMLSchema-instance" xsi:noNamespaceSchemaLocation="http://sumo.dlr.de/xsd/sumoConfiguration.xsd">

    <input>
        <net-file value="tjun.net.xml"/>
        <route-files value="tjun.rou.xml"/>
        <additional-files value="tjun.add.xml"/>
    </input>

    <output>
        <tripinfo-output value="tripinfo.xml"/>
    </output>

    <traci_server>
        <remote-port value="38051"/>
    </traci_server>

</configuration>
-->

<tripinfos xmlns:xsi="http://www.w3.org/2001/XMLSchema-instance" xsi:noNamespaceSchemaLocation="http://sumo.dlr.de/xsd/tripinfo_file.xsd">
    <tripinfo id="0" depart="0.00" departLane="-gneE5_0" departPos="5.10" departSpeed="0.00" departDelay="0.00" arrival="19.00" arrivalLane="gneE6_0" arrivalPos="104.39" arrivalSpeed="13.53" duration="19.00" routeLength="229.84" waitingTime="0.00" waitingCount="0" stopTime="0.00" timeLoss="3.22" rerouteNo="0" devices="tripinfo_0" vType="DEFAULT_VEHTYPE" speedFactor="1.06" vaporized=""/>
    <tripinfo id="2" depart="3.00" departLane="-gneE5_0" departPos="5.10" departSpeed="0.00" departDelay="1.00" arrival="24.00" arrivalLane="gneE7_0" arrivalPos="71.33" arrivalSpeed="13.31" duration="21.00" routeLength="191.54" waitingTime="0.00" waitingCount="0" stopTime="0.00" timeLoss="5.53" rerouteNo="0" devices="tripinfo_2" vType="DEFAULT_VEHTYPE" speedFactor="1.01" vaporized=""/>
    <tripinfo id="6" depart="6.00" departLane="-gneE5_0" departPos="5.10" departSpeed="0.00" departDelay="0.00" arrival="27.00" arrivalLane="gneE6_0" arrivalPos="104.39" arrivalSpeed="13.59" duration="21.00" routeLength="229.84" waitingTime="0.00" waitingCount="0" stopTime="0.00" timeLoss="4.32" rerouteNo="0" devices="tripinfo_6" vType="DEFAULT_VEHTYPE" speedFactor="1.05" vaporized=""/>
    <tripinfo id="1" depart="1.00" departLane="-gneE6_0" departPos="5.10" departSpeed="0.00" departDelay="0.00" arrival="29.00" arrivalLane="gneE7_0" arrivalPos="71.33" arrivalSpeed="11.77" duration="28.00" routeLength="184.89" waitingTime="4.00" waitingCount="1" stopTime="0.00" timeLoss="12.18" rerouteNo="0" devices="tripinfo_1" vType="DEFAULT_VEHTYPE" speedFactor="0.94" vaporized=""/>
    <tripinfo id="8" depart="8.00" departLane="-gneE6_0" departPos="5.10" departSpeed="0.00" departDelay="0.00" arrival="34.00" arrivalLane="gneE5_0" arrivalPos="116.16" arrivalSpeed="11.91" duration="26.00" routeLength="229.82" waitingTime="0.00" waitingCount="0" stopTime="0.00" timeLoss="7.85" rerouteNo="0" devices="tripinfo_8" vType="DEFAULT_VEHTYPE" speedFactor="0.94" vaporized=""/>
    <tripinfo id="9" depart="11.00" departLane="-gneE6_0" departPos="5.10" departSpeed="0.00" departDelay="2.00" arrival="36.00" arrivalLane="gneE5_0" arrivalPos="116.16" arrivalSpeed="11.88" duration="25.00" routeLength="229.82" waitingTime="0.00" waitingCount="0" stopTime="0.00" timeLoss="5.58" rerouteNo="0" devices="tripinfo_9" vType="DEFAULT_VEHTYPE" speedFactor="0.86" vaporized=""/>
    <tripinfo id="15" depart="15.00" departLane="-gneE5_0" departPos="5.10" departSpeed="0.00" departDelay="0.00" arrival="36.00" arrivalLane="gneE6_0" arrivalPos="104.39" arrivalSpeed="13.59" duration="21.00" routeLength="229.84" waitingTime="0.00" waitingCount="0" stopTime="0.00" timeLoss="3.67" rerouteNo="0" devices="tripinfo_15" vType="DEFAULT_VEHTYPE" speedFactor="0.99" vaporized=""/>
    <tripinfo id="10" depart="14.00" departLane="-gneE6_0" departPos="5.10" departSpeed="0.00" departDelay="4.00" arrival="37.00" arrivalLane="gneE7_0" arrivalPos="71.33" arrivalSpeed="14.33" duration="23.00" routeLength="184.89" waitingTime="0.00" waitingCount="0" stopTime="0.00" timeLoss="9.37" rerouteNo="0" devices="tripinfo_10" vType="DEFAULT_VEHTYPE" speedFactor="1.09" vaporized=""/>
    <tripinfo id="21" depart="21.00" departLane="-gneE5_0" departPos="5.10" departSpeed="0.00" departDelay="0.00" arrival="43.00" arrivalLane="gneE6_0" arrivalPos="104.39" arrivalSpeed="12.62" duration="22.00" routeLength="229.84" waitingTime="0.00" waitingCount="0" stopTime="0.00" timeLoss="3.86" rerouteNo="0" devices="tripinfo_21" vType="DEFAULT_VEHTYPE" speedFactor="0.94" vaporized=""/>
    <tripinfo id="11" depart="17.00" departLane="-gneE6_0" departPos="5.10" departSpeed="0.00" departDelay="6.00" arrival="44.00" arrivalLane="gneE7_0" arrivalPos="71.33" arrivalSpeed="13.39" duration="27.00" routeLength="184.89" waitingTime="1.00" waitingCount="1" stopTime="0.00" timeLoss="12.56" rerouteNo="0" devices="tripinfo_11" vType="DEFAULT_VEHTYPE" speedFactor="1.03" vaporized=""/>
    <tripinfo id="14" depart="20.00" departLane="-gneE6_0" departPos="5.10" departSpeed="0.00" departDelay="6.00" arrival="48.00" arrivalLane="gneE5_0" arrivalPos="116.16" arrivalSpeed="15.16" duration="28.00" routeLength="229.82" waitingTime="0.00" waitingCount="0" stopTime="0.00" timeLoss="13.09" rerouteNo="0" devices="tripinfo_14" vType="DEFAULT_VEHTYPE" speedFactor="1.12" vaporized=""/>
    <tripinfo id="24" depart="24.00" departLane="-gneE6_0" departPos="5.10" departSpeed="0.00" departDelay="0.00" arrival="50.00" arrivalLane="gneE5_0" arrivalPos="116.16" arrivalSpeed="15.89" duration="26.00" routeLength="229.82" waitingTime="0.00" waitingCount="0" stopTime="0.00" timeLoss="11.12" rerouteNo="0" devices="tripinfo_24" vType="DEFAULT_VEHTYPE" speedFactor="1.16" vaporized=""/>
    <tripinfo id="3" depart="3.00" departLane="-gneE7_0" departPos="5.10" departSpeed="0.00" departDelay="0.00" arrival="55.00" arrivalLane="gneE6_0" arrivalPos="104.39" arrivalSpeed="14.08" duration="52.00" routeLength="179.65" waitingTime="31.00" waitingCount="1" stopTime="0.00" timeLoss="39.51" rerouteNo="0" devices="tripinfo_3" vType="DEFAULT_VEHTYPE" speedFactor="1.08" vaporized=""/>
    <tripinfo id="4" depart="6.00" departLane="-gneE7_0" departPos="5.10" departSpeed="0.00" departDelay="2.00" arrival="59.00" arrivalLane="gneE6_0" arrivalPos="104.39" arrivalSpeed="13.84" duration="53.00" routeLength="179.65" waitingTime="29.00" waitingCount="1" stopTime="0.00" timeLoss="38.64" rerouteNo="0" devices="tripinfo_4" vType="DEFAULT_VEHTYPE" speedFactor="1.03" vaporized=""/>
    <tripinfo id="5" depart="9.00" departLane="-gneE7_0" departPos="5.10" departSpeed="0.00" departDelay="4.00" arrival="63.00" arrivalLane="gneE6_0" arrivalPos="104.39" arrivalSpeed="10.69" duration="54.00" routeLength="179.65" waitingTime="28.00" waitingCount="1" stopTime="0.00" timeLoss="37.29" rerouteNo="0" devices="tripinfo_5" vType="DEFAULT_VEHTYPE" speedFactor="0.83" vaporized=""/>
    <tripinfo id="7" depart="12.00" departLane="-gneE7_0" departPos="5.10" departSpeed="0.00" departDelay="5.00" arrival="66.00" arrivalLane="gneE5_0" arrivalPos="116.16" arrivalSpeed="12.12" duration="54.00" routeLength="196.60" waitingTime="26.00" waitingCount="1" stopTime="0.00" timeLoss="37.16" rerouteNo="0" devices="tripinfo_7" vType="DEFAULT_VEHTYPE" speedFactor="0.89" vaporized=""/>
    <tripinfo id="13" depart="15.00" departLane="-gneE7_0" departPos="5.10" departSpeed="0.00" departDelay="2.00" arrival="68.00" arrivalLane="gneE5_0" arrivalPos="116.16" arrivalSpeed="14.26" duration="53.00" routeLength="196.60" waitingTime="25.00" waitingCount="1" stopTime="0.00" timeLoss="38.29" rerouteNo="0" devices="tripinfo_13" vType="DEFAULT_VEHTYPE" speedFactor="1.05" vaporized=""/>
    <tripinfo id="16" depart="18.00" departLane="-gneE7_0" departPos="5.10" departSpeed="0.00" departDelay="2.00" arrival="70.00" arrivalLane="gneE6_0" arrivalPos="104.39" arrivalSpeed="12.68" duration="52.00" routeLength="179.65" waitingTime="24.00" waitingCount="1" stopTime="0.00" timeLoss="36.87" rerouteNo="0" devices="tripinfo_16" vType="DEFAULT_VEHTYPE" speedFactor="0.93" vaporized=""/>
    <tripinfo id="18" depart="21.00" departLane="-gneE7_0" departPos="5.10" departSpeed="0.00" departDelay="3.00" arrival="74.00" arrivalLane="gneE5_0" arrivalPos="116.16" arrivalSpeed="12.04" duration="53.00" routeLength="196.60" waitingTime="23.00" waitingCount="1" stopTime="0.00" timeLoss="35.44" rerouteNo="0" devices="tripinfo_18" vType="DEFAULT_VEHTYPE" speedFactor="0.88" vaporized=""/>
    <tripinfo id="22" depart="24.00" departLane="-gneE7_0" departPos="5.10" departSpeed="0.00" departDelay="2.00" arrival="76.00" arrivalLane="gneE5_0" arrivalPos="116.16" arrivalSpeed="12.15" duration="52.00" routeLength="196.60" waitingTime="23.00" waitingCount="1" stopTime="0.00" timeLoss="35.26" rerouteNo="0" devices="tripinfo_22" vType="DEFAULT_VEHTYPE" speedFactor="0.94" vaporized=""/>
    <tripinfo id="37" depart="37.00" departLane="-gneE7_0" departPos="5.10" departSpeed="0.00" departDelay="0.00" arrival="78.00" arrivalLane="gneE6_0" arrivalPos="104.39" arrivalSpeed="11.36" duration="41.00" routeLength="179.65" waitingTime="11.00" waitingCount="1" stopTime="0.00" timeLoss="24.26" rerouteNo="0" devices="tripinfo_37" vType="DEFAULT_VEHTYPE" speedFactor="0.83" vaporized=""/>
    <tripinfo id="38" depart="56.00" departLane="-gneE7_0" departPos="5.10" departSpeed="0.00" departDelay="18.00" arrival="80.00" arrivalLane="gneE6_0" arrivalPos="104.39" arrivalSpeed="11.12" duration="24.00" routeLength="179.65" waitingTime="0.00" waitingCount="0" stopTime="0.00" timeLoss="8.23" rerouteNo="0" devices="tripinfo_38" vType="DEFAULT_VEHTYPE" speedFactor="0.87" vaporized=""/>
    <tripinfo id="43" depart="59.00" departLane="-gneE7_0" departPos="5.10" departSpeed="0.00" departDelay="16.00" arrival="82.00" arrivalLane="gneE6_0" arrivalPos="104.39" arrivalSpeed="14.82" duration="23.00" routeLength="179.65" waitingTime="0.00" waitingCount="0" stopTime="0.00" timeLoss="10.01" rerouteNo="0" devices="tripinfo_43" vType="DEFAULT_VEHTYPE" speedFactor="1.13" vaporized=""/>
    <tripinfo id="59" depart="62.00" departLane="-gneE7_0" departPos="5.10" departSpeed="0.00" departDelay="3.00" arrival="85.00" arrivalLane="gneE5_0" arrivalPos="116.16" arrivalSpeed="12.55" duration="23.00" routeLength="196.60" waitingTime="0.00" waitingCount="0" stopTime="0.00" timeLoss="7.48" rerouteNo="0" devices="tripinfo_59" vType="DEFAULT_VEHTYPE" speedFactor="0.97" vaporized=""/>
    <tripinfo id="68" depart="68.00" departLane="-gneE7_0" departPos="5.10" departSpeed="0.00" departDelay="0.00" arrival="88.00" arrivalLane="gneE5_0" arrivalPos="116.16" arrivalSpeed="14.87" duration="20.00" routeLength="196.60" waitingTime="0.00" waitingCount="0" stopTime="0.00" timeLoss="5.49" rerouteNo="0" devices="tripinfo_68" vType="DEFAULT_VEHTYPE" speedFactor="1.09" vaporized=""/>
    <tripinfo id="70" depart="71.00" departLane="-gneE7_0" departPos="5.10" departSpeed="0.00" departDelay="1.00" arrival="90.00" arrivalLane="gneE5_0" arrivalPos="116.16" arrivalSpeed="13.83" duration="19.00" routeLength="196.60" waitingTime="0.00" waitingCount="0" stopTime="0.00" timeLoss="4.18" rerouteNo="0" devices="tripinfo_70" vType="DEFAULT_VEHTYPE" speedFactor="1.04" vaporized=""/>
    <tripinfo id="40" depart="40.00" departLane="-gneE5_0" departPos="5.10" departSpeed="0.00" departDelay="0.00" arrival="102.00" arrivalLane="gneE6_0" arrivalPos="104.39" arrivalSpeed="12.27" duration="62.00" routeLength="229.84" waitingTime="34.00" waitingCount="1" stopTime="0.00" timeLoss="43.94" rerouteNo="0" devices="tripinfo_40" vType="DEFAULT_VEHTYPE" speedFactor="0.92" vaporized=""/>
    <tripinfo id="30" depart="30.00" departLane="-gneE6_0" departPos="5.10" departSpeed="0.00" departDelay="0.00" arrival="103.00" arrivalLane="gneE5_0" arrivalPos="116.16" arrivalSpeed="13.98" duration="73.00" routeLength="229.82" waitingTime="45.00" waitingCount="1" stopTime="0.00" timeLoss="55.96" rerouteNo="0" devices="tripinfo_30" vType="DEFAULT_VEHTYPE" speedFactor="1.02" vaporized=""/>
    <tripinfo id="49" depart="49.00" departLane="-gneE5_0" departPos="5.10" departSpeed="0.00" departDelay="0.00" arrival="104.00" arrivalLane="gneE6_0" arrivalPos="104.39" arrivalSpeed="16.07" duration="55.00" routeLength="229.84" waitingTime="29.00" waitingCount="1" stopTime="0.00" timeLoss="40.53" rerouteNo="0" devices="tripinfo_49" vType="DEFAULT_VEHTYPE" speedFactor="1.18" vaporized=""/>
    <tripinfo id="31" depart="33.00" departLane="-gneE6_0" departPos="5.10" departSpeed="0.00" departDelay="2.00" arrival="105.00" arrivalLane="gneE5_0" arrivalPos="116.16" arrivalSpeed="13.68" duration="72.00" routeLength="229.82" waitingTime="43.00" waitingCount="1" stopTime="0.00" timeLoss="54.92" rerouteNo="0" devices="tripinfo_31" vType="DEFAULT_VEHTYPE" speedFactor="1.01" vaporized=""/>
    <tripinfo id="50" depart="52.00" departLane="-gneE5_0" departPos="5.10" departSpeed="0.00" departDelay="2.00" arrival="106.00" arrivalLane="gneE6_0" arrivalPos="104.39" arrivalSpeed="15.74" duration="54.00" routeLength="229.84" waitingTime="26.00" waitingCount="1" stopTime="0.00" timeLoss="39.03" rerouteNo="0" devices="tripinfo_50" vType="DEFAULT_VEHTYPE" speedFactor="1.15" vaporized=""/>
    <tripinfo id="51" depart="55.00" departLane="-gneE5_0" departPos="5.10" departSpeed="0.00" departDelay="4.00" arrival="108.00" arrivalLane="gneE6_0" arrivalPos="104.39" arrivalSpeed="12.79" duration="53.00" routeLength="229.84" waitingTime="24.00" waitingCount="1" stopTime="0.00" timeLoss="35.86" rerouteNo="0" devices="tripinfo_51" vType="DEFAULT_VEHTYPE" speedFactor="1.01" vaporized=""/>
    <tripinfo id="56" depart="58.00" departLane="-gneE5_0" departPos="5.10" departSpeed="0.00" departDelay="2.00" arrival="108.00" arrivalLane="gneE7_0" arrivalPos="71.33" arrivalSpeed="14.16" duration="50.00" routeLength="191.54" waitingTime="22.00" waitingCount="1" stopTime="0.00" timeLoss="35.59" rerouteNo="0" devices="tripinfo_56" vType="DEFAULT_VEHTYPE" speedFactor="1.02" vaporized=""/>
    <tripinfo id="60" depart="61.00" departLane="-gneE5_0" departPos="5.10" departSpeed="0.00" departDelay="1.00" arrival="111.00" arrivalLane="gneE6_0" arrivalPos="104.39" arrivalSpeed="16.15" duration="50.00" routeLength="229.84" waitingTime="21.00" waitingCount="1" stopTime="0.00" timeLoss="35.65" rerouteNo="0" devices="tripinfo_60" vType="DEFAULT_VEHTYPE" speedFactor="1.18" vaporized=""/>
    <tripinfo id="64" depart="64.00" departLane="-gneE5_0" departPos="5.10" departSpeed="0.00" departDelay="0.00" arrival="114.00" arrivalLane="gneE7_0" arrivalPos="71.33" arrivalSpeed="11.86" duration="50.00" routeLength="191.54" waitingTime="20.00" waitingCount="1" stopTime="0.00" timeLoss="32.94" rerouteNo="0" devices="tripinfo_64" vType="DEFAULT_VEHTYPE" speedFactor="0.90" vaporized=""/>
    <tripinfo id="73" depart="73.00" departLane="-gneE5_0" departPos="5.10" departSpeed="0.00" departDelay="0.00" arrival="115.00" arrivalLane="gneE7_0" arrivalPos="71.33" arrivalSpeed="13.47" duration="42.00" routeLength="191.54" waitingTime="13.00" waitingCount="1" stopTime="0.00" timeLoss="28.30" rerouteNo="0" devices="tripinfo_73" vType="DEFAULT_VEHTYPE" speedFactor="1.04" vaporized=""/>
    <tripinfo id="74" depart="76.00" departLane="-gneE5_0" departPos="5.10" departSpeed="0.00" departDelay="2.00" arrival="118.00" arrivalLane="gneE7_0" arrivalPos="71.33" arrivalSpeed="14.05" duration="42.00" routeLength="191.54" waitingTime="12.00" waitingCount="1" stopTime="0.00" timeLoss="27.64" rerouteNo="0" devices="tripinfo_74" vType="DEFAULT_VEHTYPE" speedFactor="1.09" vaporized=""/>
    <tripinfo id="78" depart="79.00" departLane="-gneE5_0" departPos="5.10" departSpeed="0.00" departDelay="1.00" arrival="121.00" arrivalLane="gneE7_0" arrivalPos="71.33" arrivalSpeed="13.85" duration="42.00" routeLength="191.54" waitingTime="9.00" waitingCount="1" stopTime="0.00" timeLoss="26.80" rerouteNo="0" devices="tripinfo_78" vType="DEFAULT_VEHTYPE" speedFactor="1.00" vaporized=""/>
    <tripinfo id="84" depart="84.00" departLane="-gneE5_0" departPos="5.10" departSpeed="0.00" departDelay="0.00" arrival="124.00" arrivalLane="gneE7_0" arrivalPos="71.33" arrivalSpeed="10.77" duration="40.00" routeLength="191.54" waitingTime="8.00" waitingCount="1" stopTime="0.00" timeLoss="22.53" rerouteNo="0" devices="tripinfo_84" vType="DEFAULT_VEHTYPE" speedFactor="0.85" vaporized=""/>
    <tripinfo id="89" depart="89.00" departLane="-gneE5_0" departPos="5.10" departSpeed="0.00" departDelay="0.00" arrival="127.00" arrivalLane="gneE6_0" arrivalPos="104.39" arrivalSpeed="14.12" duration="38.00" routeLength="229.84" waitingTime="3.00" waitingCount="1" stopTime="0.00" timeLoss="22.84" rerouteNo="0" devices="tripinfo_89" vType="DEFAULT_VEHTYPE" speedFactor="1.10" vaporized=""/>
    <tripinfo id="91" depart="92.00" departLane="-gneE5_0" departPos="5.10" departSpeed="0.00" departDelay="1.00" arrival="128.00" arrivalLane="gneE7_0" arrivalPos="71.33" arrivalSpeed="13.86" duration="36.00" routeLength="191.54" waitingTime="2.00" waitingCount="1" stopTime="0.00" timeLoss="21.20" rerouteNo="0" devices="tripinfo_91" vType="DEFAULT_VEHTYPE" speedFactor="1.00" vaporized=""/>
    <tripinfo id="100" depart="100.00" departLane="-gneE5_0" departPos="5.10" departSpeed="0.00" departDelay="0.00" arrival="132.00" arrivalLane="gneE7_0" arrivalPos="71.33" arrivalSpeed="14.49" duration="32.00" routeLength="191.54" waitingTime="0.00" waitingCount="0" stopTime="0.00" timeLoss="18.69" rerouteNo="0" devices="tripinfo_100" vType="DEFAULT_VEHTYPE" speedFactor="1.12" vaporized=""/>
    <tripinfo id="92" depart="95.00" departLane="-gneE5_0" departPos="5.10" departSpeed="0.00" departDelay="3.00" arrival="133.00" arrivalLane="gneE6_0" arrivalPos="104.39" arrivalSpeed="13.62" duration="38.00" routeLength="229.84" waitingTime="2.00" waitingCount="1" stopTime="0.00" timeLoss="20.47" rerouteNo="0" devices="tripinfo_92" vType="DEFAULT_VEHTYPE" speedFactor="1.00" vaporized=""/>
    <tripinfo id="104" depart="107.00" departLane="-gneE5_0" departPos="5.10" departSpeed="0.00" departDelay="3.00" arrival="137.00" arrivalLane="gneE6_0" arrivalPos="104.39" arrivalSpeed="12.56" duration="30.00" routeLength="229.84" waitingTime="0.00" waitingCount="0" stopTime="0.00" timeLoss="12.31" rerouteNo="0" devices="tripinfo_104" vType="DEFAULT_VEHTYPE" speedFactor="0.94" vaporized=""/>
    <tripinfo id="32" depart="36.00" departLane="-gneE6_0" departPos="5.10" departSpeed="0.00" departDelay="4.00" arrival="139.00" arrivalLane="gneE7_0" arrivalPos="71.33" arrivalSpeed="12.89" duration="103.00" routeLength="184.89" waitingTime="73.00" waitingCount="2" stopTime="0.00" timeLoss="88.29" rerouteNo="0" devices="tripinfo_32" vType="DEFAULT_VEHTYPE" speedFactor="0.98" vaporized=""/>
    <tripinfo id="121" depart="121.00" departLane="-gneE5_0" departPos="5.10" departSpeed="0.00" departDelay="0.00" arrival="144.00" arrivalLane="gneE7_0" arrivalPos="71.33" arrivalSpeed="12.76" duration="23.00" routeLength="191.54" waitingTime="0.00" waitingCount="0" stopTime="0.00" timeLoss="7.04" rerouteNo="0" devices="tripinfo_121" vType="DEFAULT_VEHTYPE" speedFactor="0.96" vaporized=""/>
    <tripinfo id="82" depart="82.00" departLane="-gneE7_0" departPos="5.10" departSpeed="0.00" departDelay="0.00" arrival="148.00" arrivalLane="gneE5_0" arrivalPos="116.16" arrivalSpeed="11.64" duration="66.00" routeLength="196.60" waitingTime="41.00" waitingCount="1" stopTime="0.00" timeLoss="49.24" rerouteNo="0" devices="tripinfo_82" vType="DEFAULT_VEHTYPE" speedFactor="0.90" vaporized=""/>
    <tripinfo id="87" depart="87.00" departLane="-gneE7_0" departPos="5.10" departSpeed="0.00" departDelay="0.00" arrival="149.00" arrivalLane="gneE6_0" arrivalPos="104.39" arrivalSpeed="13.37" duration="62.00" routeLength="179.65" waitingTime="38.00" waitingCount="1" stopTime="0.00" timeLoss="47.46" rerouteNo="0" devices="tripinfo_87" vType="DEFAULT_VEHTYPE" speedFactor="1.02" vaporized=""/>
    <tripinfo id="99" depart="99.00" departLane="-gneE7_0" departPos="5.10" departSpeed="0.00" departDelay="0.00" arrival="151.00" arrivalLane="gneE5_0" arrivalPos="116.16" arrivalSpeed="14.71" duration="52.00" routeLength="196.60" waitingTime="27.00" waitingCount="1" stopTime="0.00" timeLoss="37.90" rerouteNo="0" devices="tripinfo_99" vType="DEFAULT_VEHTYPE" speedFactor="1.08" vaporized=""/>
    <tripinfo id="108" depart="108.00" departLane="-gneE7_0" departPos="5.10" departSpeed="0.00" departDelay="0.00" arrival="156.00" arrivalLane="gneE5_0" arrivalPos="116.16" arrivalSpeed="11.96" duration="48.00" routeLength="196.60" waitingTime="20.00" waitingCount="1" stopTime="0.00" timeLoss="30.47" rerouteNo="0" devices="tripinfo_108" vType="DEFAULT_VEHTYPE" speedFactor="0.88" vaporized=""/>
    <tripinfo id="109" depart="111.00" departLane="-gneE7_0" departPos="5.10" departSpeed="0.00" departDelay="2.00" arrival="158.00" arrivalLane="gneE5_0" arrivalPos="116.16" arrivalSpeed="12.40" duration="47.00" routeLength="196.60" waitingTime="19.00" waitingCount="1" stopTime="0.00" timeLoss="30.35" rerouteNo="0" devices="tripinfo_109" vType="DEFAULT_VEHTYPE" speedFactor="0.91" vaporized=""/>
    <tripinfo id="111" depart="114.00" departLane="-gneE7_0" departPos="5.10" departSpeed="0.00" departDelay="3.00" arrival="160.00" arrivalLane="gneE5_0" arrivalPos="116.16" arrivalSpeed="14.03" duration="46.00" routeLength="196.60" waitingTime="17.00" waitingCount="1" stopTime="0.00" timeLoss="31.11" rerouteNo="0" devices="tripinfo_111" vType="DEFAULT_VEHTYPE" speedFactor="1.04" vaporized=""/>
    <tripinfo id="117" depart="117.00" departLane="-gneE7_0" departPos="5.10" departSpeed="0.00" departDelay="0.00" arrival="162.00" arrivalLane="gneE5_0" arrivalPos="116.16" arrivalSpeed="12.98" duration="45.00" routeLength="196.60" waitingTime="16.00" waitingCount="1" stopTime="0.00" timeLoss="29.23" rerouteNo="0" devices="tripinfo_117" vType="DEFAULT_VEHTYPE" speedFactor="0.97" vaporized=""/>
    <tripinfo id="123" depart="123.00" departLane="-gneE7_0" departPos="5.10" departSpeed="0.00" departDelay="0.00" arrival="164.00" arrivalLane="gneE5_0" arrivalPos="116.16" arrivalSpeed="13.34" duration="41.00" routeLength="196.60" waitingTime="12.00" waitingCount="1" stopTime="0.00" timeLoss="26.06" rerouteNo="0" devices="tripinfo_123" vType="DEFAULT_VEHTYPE" speedFactor="1.03" vaporized=""/>
    <tripinfo id="132" depart="132.00" departLane="-gneE7_0" departPos="5.10" departSpeed="0.00" departDelay="0.00" arrival="165.00" arrivalLane="gneE6_0" arrivalPos="104.39" arrivalSpeed="13.63" duration="33.00" routeLength="179.65" waitingTime="6.00" waitingCount="1" stopTime="0.00" timeLoss="19.27" rerouteNo="0" devices="tripinfo_132" vType="DEFAULT_VEHTYPE" speedFactor="1.03" vaporized=""/>
    <tripinfo id="133" depart="145.00" departLane="-gneE7_0" departPos="5.10" departSpeed="0.00" departDelay="12.00" arrival="169.00" arrivalLane="gneE5_0" arrivalPos="116.16" arrivalSpeed="12.98" duration="24.00" routeLength="196.60" waitingTime="0.00" waitingCount="0" stopTime="0.00" timeLoss="8.21" rerouteNo="0" devices="tripinfo_133" vType="DEFAULT_VEHTYPE" speedFactor="1.00" vaporized=""/>
    <tripinfo id="137" depart="148.00" departLane="-gneE7_0" departPos="5.10" departSpeed="0.00" departDelay="11.00" arrival="170.00" arrivalLane="gneE6_0" arrivalPos="104.39" arrivalSpeed="13.24" duration="22.00" routeLength="179.65" waitingTime="0.00" waitingCount="0" stopTime="0.00" timeLoss="7.91" rerouteNo="0" devices="tripinfo_137" vType="DEFAULT_VEHTYPE" speedFactor="0.98" vaporized=""/>
    <tripinfo id="142" depart="151.00" departLane="-gneE7_0" departPos="5.10" departSpeed="0.00" departDelay="9.00" arrival="173.00" arrivalLane="gneE5_0" arrivalPos="116.16" arrivalSpeed="13.50" duration="22.00" routeLength="196.60" waitingTime="0.00" waitingCount="0" stopTime="0.00" timeLoss="7.05" rerouteNo="0" devices="tripinfo_142" vType="DEFAULT_VEHTYPE" speedFactor="1.02" vaporized=""/>
    <tripinfo id="155" depart="155.00" departLane="-gneE7_0" departPos="5.10" departSpeed="0.00" departDelay="0.00" arrival="174.00" arrivalLane="gneE6_0" arrivalPos="104.39" arrivalSpeed="15.53" duration="19.00" routeLength="179.65" waitingTime="0.00" waitingCount="0" stopTime="0.00" timeLoss="6.58" rerouteNo="0" devices="tripinfo_155" vType="DEFAULT_VEHTYPE" speedFactor="1.12" vaporized=""/>
    <tripinfo id="157" depart="158.00" departLane="-gneE7_0" departPos="5.10" departSpeed="0.00" departDelay="1.00" arrival="177.00" arrivalLane="gneE6_0" arrivalPos="104.39" arrivalSpeed="14.98" duration="19.00" routeLength="179.65" waitingTime="0.00" waitingCount="0" stopTime="0.00" timeLoss="5.77" rerouteNo="0" devices="tripinfo_157" vType="DEFAULT_VEHTYPE" speedFactor="1.10" vaporized=""/>
    <tripinfo id="165" depart="165.00" departLane="-gneE7_0" departPos="5.10" departSpeed="0.00" departDelay="0.00" arrival="186.00" arrivalLane="gneE5_0" arrivalPos="116.16" arrivalSpeed="12.53" duration="21.00" routeLength="196.60" waitingTime="0.00" waitingCount="0" stopTime="0.00" timeLoss="4.39" rerouteNo="0" devices="tripinfo_165" vType="DEFAULT_VEHTYPE" speedFactor="0.95" vaporized=""/>
    <tripinfo id="167" depart="168.00" departLane="-gneE7_0" departPos="5.10" departSpeed="0.00" departDelay="1.00" arrival="186.00" arrivalLane="gneE6_0" arrivalPos="104.39" arrivalSpeed="14.64" duration="18.00" routeLength="179.65" waitingTime="0.00" waitingCount="0" stopTime="0.00" timeLoss="5.29" rerouteNo="0" devices="tripinfo_167" vType="DEFAULT_VEHTYPE" speedFactor="1.07" vaporized=""/>
    <tripinfo id="135" depart="135.00" departLane="-gneE5_0" departPos="5.10" departSpeed="0.00" departDelay="0.00" arrival="192.00" arrivalLane="gneE6_0" arrivalPos="104.39" arrivalSpeed="12.28" duration="57.00" routeLength="229.84" waitingTime="30.00" waitingCount="1" stopTime="0.00" timeLoss="39.20" rerouteNo="0" devices="tripinfo_135" vType="DEFAULT_VEHTYPE" speedFactor="0.97" vaporized=""/>
    <tripinfo id="136" depart="138.00" departLane="-gneE5_0" departPos="5.10" departSpeed="0.00" departDelay="2.00" arrival="193.00" arrivalLane="gneE6_0" arrivalPos="104.39" arrivalSpeed="15.01" duration="55.00" routeLength="229.84" waitingTime="28.00" waitingCount="1" stopTime="0.00" timeLoss="40.52" rerouteNo="0" devices="tripinfo_136" vType="DEFAULT_VEHTYPE" speedFactor="1.15" vaporized=""/>
    <tripinfo id="138" depart="141.00" departLane="-gneE5_0" departPos="5.10" departSpeed="0.00" departDelay="3.00" arrival="194.00" arrivalLane="gneE7_0" arrivalPos="71.33" arrivalSpeed="13.82" duration="53.00" routeLength="191.54" waitingTime="28.00" waitingCount="1" stopTime="0.00" timeLoss="38.06" rerouteNo="0" devices="tripinfo_138" vType="DEFAULT_VEHTYPE" speedFactor="1.00" vaporized=""/>
    <tripinfo id="140" depart="144.00" departLane="-gneE5_0" departPos="5.10" departSpeed="0.00" departDelay="4.00" arrival="198.00" arrivalLane="gneE6_0" arrivalPos="104.39" arrivalSpeed="14.47" duration="54.00" routeLength="229.84" waitingTime="25.00" waitingCount="1" stopTime="0.00" timeLoss="37.25" rerouteNo="0" devices="tripinfo_140" vType="DEFAULT_VEHTYPE" speedFactor="1.04" vaporized=""/>
    <tripinfo id="144" depart="147.00" departLane="-gneE5_0" departPos="5.10" departSpeed="0.00" departDelay="3.00" arrival="199.00" arrivalLane="gneE6_0" arrivalPos="104.39" arrivalSpeed="13.91" duration="52.00" routeLength="229.84" waitingTime="23.00" waitingCount="1" stopTime="0.00" timeLoss="35.72" rerouteNo="0" devices="tripinfo_144" vType="DEFAULT_VEHTYPE" speedFactor="1.02" vaporized=""/>
    <tripinfo id="149" depart="150.00" departLane="-gneE5_0" departPos="5.10" departSpeed="0.00" departDelay="1.00" arrival="202.00" arrivalLane="gneE6_0" arrivalPos="104.39" arrivalSpeed="12.35" duration="52.00" routeLength="229.84" waitingTime="22.00" waitingCount="1" stopTime="0.00" timeLoss="33.71" rerouteNo="0" devices="tripinfo_149" vType="DEFAULT_VEHTYPE" speedFactor="0.92" vaporized=""/>
    <tripinfo id="151" depart="153.00" departLane="-gneE5_0" departPos="5.10" departSpeed="0.00" departDelay="2.00" arrival="202.00" arrivalLane="gneE7_0" arrivalPos="71.33" arrivalSpeed="14.48" duration="49.00" routeLength="191.54" waitingTime="21.00" waitingCount="1" stopTime="0.00" timeLoss="34.93" rerouteNo="0" devices="tripinfo_151" vType="DEFAULT_VEHTYPE" speedFactor="1.09" vaporized=""/>
    <tripinfo id="152" depart="156.00" departLane="-gneE5_0" departPos="5.10" departSpeed="0.00" departDelay="4.00" arrival="204.00" arrivalLane="gneE7_0" arrivalPos="71.33" arrivalSpeed="13.69" duration="48.00" routeLength="191.54" waitingTime="21.00" waitingCount="1" stopTime="0.00" timeLoss="34.32" rerouteNo="0" devices="tripinfo_152" vType="DEFAULT_VEHTYPE" speedFactor="1.06" vaporized=""/>
    <tripinfo id="154" depart="159.00" departLane="-gneE5_0" departPos="5.10" departSpeed="0.00" departDelay="5.00" arrival="208.00" arrivalLane="gneE7_0" arrivalPos="71.33" arrivalSpeed="11.40" duration="49.00" routeLength="191.54" waitingTime="18.00" waitingCount="1" stopTime="0.00" timeLoss="32.90" rerouteNo="0" devices="tripinfo_154" vType="DEFAULT_VEHTYPE" speedFactor="0.91" vaporized=""/>
    <tripinfo id="158" depart="162.00" departLane="-gneE5_0" departPos="5.10" departSpeed="0.00" departDelay="4.00" arrival="212.00" arrivalLane="gneE6_0" arrivalPos="104.39" arrivalSpeed="14.73" duration="50.00" routeLength="229.84" waitingTime="18.00" waitingCount="1" stopTime="0.00" timeLoss="33.63" rerouteNo="0" devices="tripinfo_158" vType="DEFAULT_VEHTYPE" speedFactor="1.07" vaporized=""/>
    <tripinfo id="159" depart="165.00" departLane="-gneE5_0" departPos="5.10" departSpeed="0.00" departDelay="6.00" arrival="213.00" arrivalLane="gneE7_0" arrivalPos="71.33" arrivalSpeed="12.08" duration="48.00" routeLength="191.54" waitingTime="17.00" waitingCount="1" stopTime="0.00" timeLoss="32.29" rerouteNo="0" devices="tripinfo_159" vType="DEFAULT_VEHTYPE" speedFactor="0.96" vaporized=""/>