<?xml version="1.0" encoding="UTF-8"?>

<!-- generated on Thu 20 Aug 2020 03:04:47 by Eclipse SUMO GUI Version 1.4.0
<configuration xmlns:xsi="http://www.w3.org/2001/XMLSchema-instance" xsi:noNamespaceSchemaLocation="http://sumo.dlr.de/xsd/sumoConfiguration.xsd">

    <input>
        <net-file value="4way.net.xml"/>
        <route-files value="4way.rou.xml"/>
        <additional-files value="4way.add.xml"/>
    </input>

    <output>
        <tripinfo-output value="tripinfo.xml"/>
    </output>

    <traci_server>
        <remote-port value="44199"/>
    </traci_server>

</configuration>
-->

<tripinfos xmlns:xsi="http://www.w3.org/2001/XMLSchema-instance" xsi:noNamespaceSchemaLocation="http://sumo.dlr.de/xsd/tripinfo_file.xsd">
    <tripinfo id="0" depart="0.00" departLane="-gneE9_0" departPos="5.10" departSpeed="0.00" departDelay="0.00" arrival="15.00" arrivalLane="-gneE14_0" arrivalPos="76.83" arrivalSpeed="14.39" duration="15.00" routeLength="125.29" waitingTime="0.00" waitingCount="0" stopTime="0.00" timeLoss="5.52" rerouteNo="0" devices="tripinfo_0" vType="DEFAULT_VEHTYPE" speedFactor="1.06" vaporized=""/>
    <tripinfo id="5" depart="7.00" departLane="-gneE9_0" departPos="5.10" departSpeed="0.00" departDelay="2.00" arrival="17.00" arrivalLane="gneE12_0" arrivalPos="42.58" arrivalSpeed="13.05" duration="10.00" routeLength="91.21" waitingTime="0.00" waitingCount="0" stopTime="0.00" timeLoss="3.22" rerouteNo="0" devices="tripinfo_5" vType="DEFAULT_VEHTYPE" speedFactor="1.03" vaporized=""/>
    <tripinfo id="4" depart="4.00" departLane="-gneE9_0" departPos="5.10" departSpeed="0.00" departDelay="0.00" arrival="18.00" arrivalLane="gneE10_0" arrivalPos="87.42" arrivalSpeed="14.78" duration="14.00" routeLength="130.60" waitingTime="0.00" waitingCount="0" stopTime="0.00" timeLoss="4.44" rerouteNo="0" devices="tripinfo_4" vType="DEFAULT_VEHTYPE" speedFactor="1.08" vaporized=""/>
    <tripinfo id="3" depart="5.00" departLane="-gneE12_0" departPos="5.10" departSpeed="0.00" departDelay="2.00" arrival="23.00" arrivalLane="gneE9_0" arrivalPos="39.25" arrivalSpeed="13.96" duration="18.00" routeLength="91.36" waitingTime="1.00" waitingCount="1" stopTime="0.00" timeLoss="10.93" rerouteNo="0" devices="tripinfo_3" vType="DEFAULT_VEHTYPE" speedFactor="1.01" vaporized=""/>
    <tripinfo id="2" depart="2.00" departLane="-gneE12_0" departPos="5.10" departSpeed="0.00" departDelay="0.00" arrival="25.00" arrivalLane="gneE10_0" arrivalPos="87.42" arrivalSpeed="12.12" duration="23.00" routeLength="139.20" waitingTime="3.00" waitingCount="1" stopTime="0.00" timeLoss="10.59" rerouteNo="0" devices="tripinfo_2" vType="DEFAULT_VEHTYPE" speedFactor="0.94" vaporized=""/>
    <tripinfo id="16" depart="16.00" departLane="-gneE12_0" departPos="5.10" departSpeed="0.00" departDelay="0.00" arrival="26.00" arrivalLane="gneE9_0" arrivalPos="39.25" arrivalSpeed="13.82" duration="10.00" routeLength="91.36" waitingTime="0.00" waitingCount="0" stopTime="0.00" timeLoss="3.67" rerouteNo="0" devices="tripinfo_16" vType="DEFAULT_VEHTYPE" speedFactor="1.05" vaporized=""/>
    <tripinfo id="11" depart="11.00" departLane="-gneE12_0" departPos="5.10" departSpeed="0.00" departDelay="0.00" arrival="30.00" arrivalLane="gneE10_0" arrivalPos="87.42" arrivalSpeed="11.87" duration="19.00" routeLength="139.20" waitingTime="0.00" waitingCount="0" stopTime="0.00" timeLoss="6.30" rerouteNo="0" devices="tripinfo_11" vType="DEFAULT_VEHTYPE" speedFactor="0.89" vaporized=""/>
    <tripinfo id="10" depart="10.00" departLane="-gneE9_0" departPos="5.10" departSpeed="0.00" departDelay="0.00" arrival="34.00" arrivalLane="-gneE14_0" arrivalPos="76.83" arrivalSpeed="13.66" duration="24.00" routeLength="125.29" waitingTime="5.00" waitingCount="1" stopTime="0.00" timeLoss="13.72" rerouteNo="0" devices="tripinfo_10" vType="DEFAULT_VEHTYPE" speedFactor="1.05" vaporized=""/>
    <tripinfo id="17" depart="19.00" departLane="-gneE12_0" departPos="5.10" departSpeed="0.00" departDelay="2.00" arrival="35.00" arrivalLane="gneE10_0" arrivalPos="87.42" arrivalSpeed="15.51" duration="16.00" routeLength="139.20" waitingTime="0.00" waitingCount="0" stopTime="0.00" timeLoss="5.59" rerouteNo="0" devices="tripinfo_17" vType="DEFAULT_VEHTYPE" speedFactor="1.12" vaporized=""/>
    <tripinfo id="18" depart="22.00" departLane="-gneE12_0" departPos="5.10" departSpeed="0.00" departDelay="4.00" arrival="37.00" arrivalLane="-gneE14_0" arrivalPos="76.83" arrivalSpeed="12.96" duration="15.00" routeLength="123.80" waitingTime="0.00" waitingCount="0" stopTime="0.00" timeLoss="5.05" rerouteNo="0" devices="tripinfo_18" vType="DEFAULT_VEHTYPE" speedFactor="0.99" vaporized=""/>
    <tripinfo id="19" depart="25.00" departLane="-gneE12_0" departPos="5.10" departSpeed="0.00" departDelay="6.00" arrival="40.00" arrivalLane="-gneE14_0" arrivalPos="76.83" arrivalSpeed="12.55" duration="15.00" routeLength="123.80" waitingTime="0.00" waitingCount="0" stopTime="0.00" timeLoss="4.81" rerouteNo="0" devices="tripinfo_19" vType="DEFAULT_VEHTYPE" speedFactor="0.93" vaporized=""/>
    <tripinfo id="30" depart="30.00" departLane="-gneE9_0" departPos="5.10" departSpeed="0.00" departDelay="0.00" arrival="47.00" arrivalLane="gneE10_0" arrivalPos="87.42" arrivalSpeed="11.67" duration="17.00" routeLength="130.60" waitingTime="0.00" waitingCount="0" stopTime="0.00" timeLoss="5.16" rerouteNo="0" devices="tripinfo_30" vType="DEFAULT_VEHTYPE" speedFactor="0.89" vaporized=""/>
    <tripinfo id="14" depart="14.00" departLane="gneE14_0" departPos="5.10" departSpeed="0.00" departDelay="0.00" arrival="52.00" arrivalLane="gneE10_0" arrivalPos="87.42" arrivalSpeed="14.90" duration="38.00" routeLength="173.64" waitingTime="17.00" waitingCount="1" stopTime="0.00" timeLoss="25.92" rerouteNo="0" devices="tripinfo_14" vType="DEFAULT_VEHTYPE" speedFactor="1.09" vaporized=""/>
    <tripinfo id="15" depart="17.00" departLane="gneE14_0" departPos="5.10" departSpeed="0.00" departDelay="2.00" arrival="54.00" arrivalLane="gneE10_0" arrivalPos="87.42" arrivalSpeed="13.37" duration="37.00" routeLength="173.64" waitingTime="14.00" waitingCount="1" stopTime="0.00" timeLoss="24.22" rerouteNo="0" devices="tripinfo_15" vType="DEFAULT_VEHTYPE" speedFactor="1.03" vaporized=""/>
    <tripinfo id="21" depart="21.00" departLane="gneE14_0" departPos="5.10" departSpeed="0.00" departDelay="0.00" arrival="54.00" arrivalLane="gneE12_0" arrivalPos="42.58" arrivalSpeed="11.73" duration="33.00" routeLength="128.70" waitingTime="11.00" waitingCount="1" stopTime="0.00" timeLoss="20.83" rerouteNo="0" devices="tripinfo_21" vType="DEFAULT_VEHTYPE" speedFactor="0.88" vaporized=""/>
    <tripinfo id="23" depart="24.00" departLane="gneE14_0" departPos="5.10" departSpeed="0.00" departDelay="1.00" arrival="58.00" arrivalLane="gneE10_0" arrivalPos="87.42" arrivalSpeed="12.61" duration="34.00" routeLength="173.64" waitingTime="11.00" waitingCount="1" stopTime="0.00" timeLoss="20.29" rerouteNo="0" devices="tripinfo_23" vType="DEFAULT_VEHTYPE" speedFactor="0.94" vaporized=""/>
    <tripinfo id="28" depart="28.00" departLane="gneE14_0" departPos="5.10" departSpeed="0.00" departDelay="0.00" arrival="60.00" arrivalLane="gneE10_0" arrivalPos="87.42" arrivalSpeed="12.35" duration="32.00" routeLength="173.64" waitingTime="9.00" waitingCount="1" stopTime="0.00" timeLoss="18.80" rerouteNo="0" devices="tripinfo_28" vType="DEFAULT_VEHTYPE" speedFactor="0.98" vaporized=""/>
    <tripinfo id="38" depart="38.00" departLane="-gneE9_0" departPos="5.10" departSpeed="0.00" departDelay="0.00" arrival="67.00" arrivalLane="gneE10_0" arrivalPos="87.42" arrivalSpeed="15.71" duration="29.00" routeLength="130.60" waitingTime="11.00" waitingCount="1" stopTime="0.00" timeLoss="20.66" rerouteNo="0" devices="tripinfo_38" vType="DEFAULT_VEHTYPE" speedFactor="1.18" vaporized=""/>
    <tripinfo id="8" depart="8.00" departLane="-gneE10_0" departPos="5.10" departSpeed="0.00" departDelay="0.00" arrival="69.00" arrivalLane="-gneE14_0" arrivalPos="76.83" arrivalSpeed="10.84" duration="61.00" routeLength="173.82" waitingTime="36.00" waitingCount="1" stopTime="0.00" timeLoss="45.02" rerouteNo="0" devices="tripinfo_8" vType="DEFAULT_VEHTYPE" speedFactor="0.83" vaporized=""/>
    <tripinfo id="41" depart="41.00" departLane="-gneE9_0" departPos="5.10" departSpeed="0.00" departDelay="0.00" arrival="70.00" arrivalLane="gneE10_0" arrivalPos="87.42" arrivalSpeed="15.87" duration="29.00" routeLength="130.60" waitingTime="10.00" waitingCount="1" stopTime="0.00" timeLoss="19.40" rerouteNo="0" devices="tripinfo_41" vType="DEFAULT_VEHTYPE" speedFactor="1.17" vaporized=""/>
    <tripinfo id="39" depart="39.00" departLane="-gneE12_0" departPos="5.10" departSpeed="0.00" departDelay="0.00" arrival="125.00" arrivalLane="-gneE14_0" arrivalPos="76.83" arrivalSpeed="15.72" duration="86.00" routeLength="123.80" waitingTime="69.00" waitingCount="1" stopTime="0.00" timeLoss="77.14" rerouteNo="0" devices="tripinfo_39" vType="DEFAULT_VEHTYPE" speedFactor="1.15" vaporized=""/>
    <tripinfo id="51" depart="51.00" departLane="-gneE9_0" departPos="5.10" departSpeed="0.00" departDelay="0.00" arrival="127.00" arrivalLane="-gneE14_0" arrivalPos="76.83" arrivalSpeed="13.94" duration="76.00" routeLength="125.29" waitingTime="51.00" waitingCount="2" stopTime="0.00" timeLoss="66.47" rerouteNo="0" devices="tripinfo_51" vType="DEFAULT_VEHTYPE" speedFactor="1.03" vaporized=""/>
    <tripinfo id="42" depart="42.00" departLane="-gneE12_0" departPos="5.10" departSpeed="0.00" departDelay="0.00" arrival="129.00" arrivalLane="gneE10_0" arrivalPos="87.42" arrivalSpeed="13.53" duration="87.00" routeLength="139.20" waitingTime="66.00" waitingCount="1" stopTime="0.00" timeLoss="75.79" rerouteNo="0" devices="tripinfo_42" vType="DEFAULT_VEHTYPE" speedFactor="0.99" vaporized=""/>
    <tripinfo id="60" depart="60.00" departLane="-gneE12_0" departPos="5.10" departSpeed="0.00" departDelay="0.00" arrival="129.00" arrivalLane="gneE9_0" arrivalPos="39.25" arrivalSpeed="13.62" duration="69.00" routeLength="91.36" waitingTime="53.00" waitingCount="1" stopTime="0.00" timeLoss="61.89" rerouteNo="0" devices="tripinfo_60" vType="DEFAULT_VEHTYPE" speedFactor="1.00" vaporized=""/>
    <tripinfo id="52" depart="54.00" departLane="-gneE9_0" departPos="5.10" departSpeed="0.00" departDelay="2.00" arrival="130.00" arrivalLane="-gneE14_0" arrivalPos="76.83" arrivalSpeed="12.52" duration="76.00" routeLength="125.29" waitingTime="50.00" waitingCount="2" stopTime="0.00" timeLoss="65.44" rerouteNo="0" devices="tripinfo_52" vType="DEFAULT_VEHTYPE" speedFactor="0.96" vaporized=""/>
    <tripinfo id="55" depart="55.00" departLane="-gneE12_0" departPos="5.10" departSpeed="0.00" departDelay="0.00" arrival="131.00" arrivalLane="gneE10_0" arrivalPos="87.42" arrivalSpeed="13.81" duration="76.00" routeLength="139.20" waitingTime="56.00" waitingCount="1" stopTime="0.00" timeLoss="65.33" rerouteNo="0" devices="tripinfo_55" vType="DEFAULT_VEHTYPE" speedFactor="1.04" vaporized=""/>
    <tripinfo id="64" depart="121.00" departLane="-gneE12_0" departPos="5.10" departSpeed="0.00" departDelay="57.00" arrival="135.00" arrivalLane="gneE9_0" arrivalPos="39.25" arrivalSpeed="11.07" duration="14.00" routeLength="91.36" waitingTime="0.00" waitingCount="0" stopTime="0.00" timeLoss="5.84" rerouteNo="0" devices="tripinfo_64" vType="DEFAULT_VEHTYPE" speedFactor="0.85" vaporized=""/>
    <tripinfo id="63" depart="63.00" departLane="-gneE12_0" departPos="5.10" departSpeed="0.00" departDelay="0.00" arrival="138.00" arrivalLane="gneE10_0" arrivalPos="87.42" arrivalSpeed="12.07" duration="75.00" routeLength="139.20" waitingTime="52.00" waitingCount="1" stopTime="0.00" timeLoss="62.08" rerouteNo="0" devices="tripinfo_63" vType="DEFAULT_VEHTYPE" speedFactor="0.88" vaporized=""/>
    <tripinfo id="65" depart="124.00" departLane="-gneE12_0" departPos="5.10" departSpeed="0.00" departDelay="59.00" arrival="141.00" arrivalLane="-gneE14_0" arrivalPos="76.83" arrivalSpeed="11.27" duration="17.00" routeLength="123.80" waitingTime="0.00" waitingCount="0" stopTime="0.00" timeLoss="5.39" rerouteNo="0" devices="tripinfo_65" vType="DEFAULT_VEHTYPE" speedFactor="0.85" vaporized=""/>
    <tripinfo id="74" depart="130.00" departLane="-gneE12_0" departPos="5.10" departSpeed="0.00" departDelay="56.00" arrival="142.00" arrivalLane="gneE9_0" arrivalPos="39.25" arrivalSpeed="13.36" duration="12.00" routeLength="91.36" waitingTime="0.00" waitingCount="0" stopTime="0.00" timeLoss="5.06" rerouteNo="0" devices="tripinfo_74" vType="DEFAULT_VEHTYPE" speedFactor="1.02" vaporized=""/>
    <tripinfo id="71" depart="127.00" departLane="-gneE12_0" departPos="5.10" departSpeed="0.00" departDelay="56.00" arrival="145.00" arrivalLane="gneE10_0" arrivalPos="87.42" arrivalSpeed="12.39" duration="18.00" routeLength="139.20" waitingTime="0.00" waitingCount="0" stopTime="0.00" timeLoss="5.63" rerouteNo="0" devices="tripinfo_71" vType="DEFAULT_VEHTYPE" speedFactor="0.90" vaporized=""/>
    <tripinfo id="81" depart="133.00" departLane="-gneE12_0" departPos="5.10" departSpeed="0.00" departDelay="52.00" arrival="148.00" arrivalLane="-gneE14_0" arrivalPos="76.83" arrivalSpeed="13.09" duration="15.00" routeLength="123.80" waitingTime="0.00" waitingCount="0" stopTime="0.00" timeLoss="5.03" rerouteNo="0" devices="tripinfo_81" vType="DEFAULT_VEHTYPE" speedFactor="0.99" vaporized=""/>
    <tripinfo id="88" depart="136.00" departLane="-gneE12_0" departPos="5.10" departSpeed="0.00" departDelay="48.00" arrival="150.00" arrivalLane="-gneE14_0" arrivalPos="76.83" arrivalSpeed="13.85" duration="14.00" routeLength="123.80" waitingTime="0.00" waitingCount="0" stopTime="0.00" timeLoss="4.66" rerouteNo="0" devices="tripinfo_88" vType="DEFAULT_VEHTYPE" speedFactor="1.02" vaporized=""/>
    <tripinfo id="108" depart="139.00" departLane="-gneE12_0" departPos="5.10" departSpeed="0.00" departDelay="31.00" arrival="154.00" arrivalLane="-gneE14_0" arrivalPos="76.83" arrivalSpeed="13.00" duration="15.00" routeLength="123.80" waitingTime="0.00" waitingCount="0" stopTime="0.00" timeLoss="4.90" rerouteNo="0" devices="tripinfo_108" vType="DEFAULT_VEHTYPE" speedFactor="0.98" vaporized=""/>
    <tripinfo id="59" depart="59.00" departLane="-gneE9_0" departPos="5.10" departSpeed="0.00" departDelay="0.00" arrival="156.00" arrivalLane="-gneE14_0" arrivalPos="76.83" arrivalSpeed="13.89" duration="97.00" routeLength="125.29" waitingTime="71.00" waitingCount="2" stopTime="0.00" timeLoss="87.84" rerouteNo="0" devices="tripinfo_59" vType="DEFAULT_VEHTYPE" speedFactor="1.09" vaporized=""/>
    <tripinfo id="116" depart="142.00" departLane="-gneE12_0" departPos="5.10" departSpeed="0.00" departDelay="26.00" arrival="159.00" arrivalLane="gneE10_0" arrivalPos="87.42" arrivalSpeed="11.09" duration="17.00" routeLength="139.20" waitingTime="0.00" waitingCount="0" stopTime="0.00" timeLoss="4.78" rerouteNo="0" devices="tripinfo_116" vType="DEFAULT_VEHTYPE" speedFactor="0.89" vaporized=""/>
    <tripinfo id="126" depart="145.00" departLane="-gneE12_0" departPos="5.10" departSpeed="0.00" departDelay="19.00" arrival="160.00" arrivalLane="-gneE14_0" arrivalPos="76.83" arrivalSpeed="15.01" duration="15.00" routeLength="123.80" waitingTime="0.00" waitingCount="0" stopTime="0.00" timeLoss="5.67" rerouteNo="0" devices="tripinfo_126" vType="DEFAULT_VEHTYPE" speedFactor="1.12" vaporized=""/>
    <tripinfo id="136" depart="151.00" departLane="-gneE12_0" departPos="5.10" departSpeed="0.00" departDelay="15.00" arrival="162.00" arrivalLane="gneE9_0" arrivalPos="39.25" arrivalSpeed="12.41" duration="11.00" routeLength="91.36" waitingTime="0.00" waitingCount="0" stopTime="0.00" timeLoss="3.36" rerouteNo="0" devices="tripinfo_136" vType="DEFAULT_VEHTYPE" speedFactor="0.89" vaporized=""/>
    <tripinfo id="129" depart="148.00" departLane="-gneE12_0" departPos="5.10" departSpeed="0.00" departDelay="19.00" arrival="164.00" arrivalLane="gneE10_0" arrivalPos="87.42" arrivalSpeed="13.68" duration="16.00" routeLength="139.20" waitingTime="0.00" waitingCount="0" stopTime="0.00" timeLoss="5.23" rerouteNo="0" devices="tripinfo_129" vType="DEFAULT_VEHTYPE" speedFactor="1.07" vaporized=""/>
    <tripinfo id="12" depart="12.00" departLane="-gneE10_0" departPos="5.10" departSpeed="0.00" departDelay="0.00" arrival="165.00" arrivalLane="gneE12_0" arrivalPos="42.58" arrivalSpeed="11.97" duration="153.00" routeLength="133.99" waitingTime="129.00" waitingCount="2" stopTime="0.00" timeLoss="141.41" rerouteNo="0" devices="tripinfo_12" vType="DEFAULT_VEHTYPE" speedFactor="0.94" vaporized=""/>
    <tripinfo id="61" depart="64.00" departLane="-gneE9_0" departPos="5.10" departSpeed="0.00" departDelay="3.00" arrival="169.00" arrivalLane="-gneE14_0" arrivalPos="76.83" arrivalSpeed="11.57" duration="105.00" routeLength="125.29" waitingTime="75.00" waitingCount="3" stopTime="0.00" timeLoss="93.80" rerouteNo="0" devices="tripinfo_61" vType="DEFAULT_VEHTYPE" speedFactor="0.90" vaporized=""/>
    <tripinfo id="144" depart="154.00" departLane="-gneE12_0" departPos="5.10" departSpeed="0.00" departDelay="10.00" arrival="170.00" arrivalLane="gneE10_0" arrivalPos="87.42" arrivalSpeed="12.51" duration="16.00" routeLength="139.20" waitingTime="0.00" waitingCount="0" stopTime="0.00" timeLoss="4.95" rerouteNo="0" devices="tripinfo_144" vType="DEFAULT_VEHTYPE" speedFactor="0.96" vaporized=""/>
    <tripinfo id="148" depart="157.00" departLane="-gneE12_0" departPos="5.10" departSpeed="0.00" departDelay="9.00" arrival="172.00" arrivalLane="gneE10_0" arrivalPos="87.42" arrivalSpeed="14.40" duration="15.00" routeLength="139.20" waitingTime="0.00" waitingCount="0" stopTime="0.00" timeLoss="5.06" rerouteNo="0" devices="tripinfo_148" vType="DEFAULT_VEHTYPE" speedFactor="1.10" vaporized=""/>
    <tripinfo id="37" depart="37.00" departLane="gneE14_0" departPos="5.10" departSpeed="0.00" departDelay="0.00" arrival="176.00" arrivalLane="gneE10_0" arrivalPos="87.42" arrivalSpeed="12.76" duration="139.00" routeLength="173.64" waitingTime="107.00" waitingCount="4" stopTime="0.00" timeLoss="125.33" rerouteNo="0" devices="tripinfo_37" vType="DEFAULT_VEHTYPE" speedFactor="0.93" vaporized=""/>
    <tripinfo id="13" depart="15.00" departLane="-gneE10_0" departPos="5.10" departSpeed="0.00" departDelay="2.00" arrival="184.00" arrivalLane="-gneE14_0" arrivalPos="76.83" arrivalSpeed="11.83" duration="169.00" routeLength="173.82" waitingTime="138.00" waitingCount="3" stopTime="0.00" timeLoss="153.61" rerouteNo="0" devices="tripinfo_13" vType="DEFAULT_VEHTYPE" speedFactor="0.86" vaporized=""/>
    <tripinfo id="68" depart="68.00" departLane="-gneE9_0" departPos="5.10" departSpeed="0.00" departDelay="0.00" arrival="184.00" arrivalLane="gneE10_0" arrivalPos="87.42" arrivalSpeed="14.57" duration="116.00" routeLength="130.60" waitingTime="86.00" waitingCount="3" stopTime="0.00" timeLoss="106.22" rerouteNo="0" devices="tripinfo_68" vType="DEFAULT_VEHTYPE" speedFactor="1.10" vaporized=""/>
    <tripinfo id="22" depart="22.00" departLane="-gneE10_0" departPos="5.10" departSpeed="0.00" departDelay="0.00" arrival="186.00" arrivalLane="-gneE14_0" arrivalPos="76.83" arrivalSpeed="12.72" duration="164.00" routeLength="173.82" waitingTime="129.00" waitingCount="3" stopTime="0.00" timeLoss="150.23" rerouteNo="0" devices="tripinfo_22" vType="DEFAULT_VEHTYPE" speedFactor="0.94" vaporized=""/>
    <tripinfo id="87" depart="122.00" departLane="-gneE9_0" departPos="5.10" departSpeed="0.00" departDelay="35.00" arrival="186.00" arrivalLane="gneE10_0" arrivalPos="87.42" arrivalSpeed="14.16" duration="64.00" routeLength="130.60" waitingTime="37.00" waitingCount="2" stopTime="0.00" timeLoss="53.97" rerouteNo="0" devices="tripinfo_87" vType="DEFAULT_VEHTYPE" speedFactor="1.04" vaporized=""/>
    <tripinfo id="25" depart="28.00" departLane="-gneE10_0" departPos="5.10" departSpeed="0.00" departDelay="3.00" arrival="187.00" arrivalLane="gneE9_0" arrivalPos="39.25" arrivalSpeed="12.96" duration="159.00" routeLength="135.90" waitingTime="126.00" waitingCount="3" stopTime="0.00" timeLoss="148.58" rerouteNo="0" devices="tripinfo_25" vType="DEFAULT_VEHTYPE" speedFactor="1.02" vaporized=""/>
    <tripinfo id="24" depart="25.00" departLane="-gneE10_0" departPos="5.10" departSpeed="0.00" departDelay="1.00" arrival="188.00" arrivalLane="-gneE14_0" arrivalPos="76.83" arrivalSpeed="16.03" duration="163.00" routeLength="173.82" waitingTime="128.00" waitingCount="3" stopTime="0.00" timeLoss="151.33" rerouteNo="0" devices="tripinfo_24" vType="DEFAULT_VEHTYPE" speedFactor="1.16" vaporized=""/>
    <tripinfo id="92" depart="126.00" departLane="-gneE9_0" departPos="5.10" departSpeed="0.00" departDelay="34.00" arrival="190.00" arrivalLane="gneE10_0" arrivalPos="87.42" arrivalSpeed="12.03" duration="64.00" routeLength="130.60" waitingTime="35.00" waitingCount="2" stopTime="0.00" timeLoss="52.55" rerouteNo="0" devices="tripinfo_92" vType="DEFAULT_VEHTYPE" speedFactor="0.94" vaporized=""/>
    <tripinfo id="26" depart="31.00" departLane="-gneE10_0" departPos="5.10" departSpeed="0.00" departDelay="5.00" arrival="191.00" arrivalLane="-gneE14_0" arrivalPos="76.83" arrivalSpeed="13.62" duration="160.00" routeLength="173.82" waitingTime="122.00" waitingCount="3" stopTime="0.00" timeLoss="147.36" rerouteNo="0" devices="tripinfo_26" vType="DEFAULT_VEHTYPE" speedFactor="1.01" vaporized=""/>
    <tripinfo id="96" depart="129.00" departLane="-gneE9_0" departPos="5.10" departSpeed="0.00" departDelay="33.00" arrival="192.00" arrivalLane="gneE10_0" arrivalPos="87.42" arrivalSpeed="12.77" duration="63.00" routeLength="130.60" waitingTime="34.00" waitingCount="3" stopTime="0.00" timeLoss="52.42" rerouteNo="0" devices="tripinfo_96" vType="DEFAULT_VEHTYPE" speedFactor="0.98" vaporized=""/>
    <tripinfo id="31" depart="34.00" departLane="-gneE10_0" departPos="5.10" departSpeed="0.00" departDelay="3.00" arrival="193.00" arrivalLane="gneE9_0" arrivalPos="39.25" arrivalSpeed="11.01" duration="159.00" routeLength="135.90" waitingTime="121.00" waitingCount="3" stopTime="0.00" timeLoss="145.29" rerouteNo="0" devices="tripinfo_31" vType="DEFAULT_VEHTYPE" speedFactor="0.83" vaporized=""/>
    <tripinfo id="33" depart="37.00" departLane="-gneE10_0" departPos="5.10" departSpeed="0.00" departDelay="4.00" arrival="195.00" arrivalLane="gneE9_0" arrivalPos="39.25" arrivalSpeed="11.29" duration="158.00" routeLength="135.90" waitingTime="119.00" waitingCount="3" stopTime="0.00" timeLoss="145.48" rerouteNo="0" devices="tripinfo_33" vType="DEFAULT_VEHTYPE" speedFactor="0.87" vaporized=""/>
    <tripinfo id="34" depart="40.00" departLane="-gneE10_0" departPos="5.10" departSpeed="0.00" departDelay="6.00" arrival="199.00" arrivalLane="-gneE14_0" arrivalPos="76.83" arrivalSpeed="12.61" duration="159.00" routeLength="173.82" waitingTime="116.00" waitingCount="3" stopTime="0.00" timeLoss="144.86" rerouteNo="0" devices="tripinfo_34" vType="DEFAULT_VEHTYPE" speedFactor="0.92" vaporized=""/>
    <tripinfo id="35" depart="43.00" departLane="-gneE10_0" departPos="5.10" departSpeed="0.00" departDelay="8.00" arrival="201.00" arrivalLane="-gneE14_0" arrivalPos="76.83" arrivalSpeed="12.08" duration="158.00" routeLength="173.82" waitingTime="114.00" waitingCount="3" stopTime="0.00" timeLoss="144.18" rerouteNo="0" devices="tripinfo_35" vType="DEFAULT_VEHTYPE" speedFactor="0.95" vaporized=""/>
    <tripinfo id="151" depart="160.00" departLane="-gneE12_0" departPos="5.10" departSpeed="0.00" departDelay="9.00" arrival="240.00" arrivalLane="-gneE14_0" arrivalPos="76.83" arrivalSpeed="14.49" duration="80.00" routeLength="123.80" waitingTime="62.00" waitingCount="1" stopTime="0.00" timeLoss="71.20" rerouteNo="0" devices="tripinfo_151" vType="DEFAULT_VEHTYPE" speedFactor="1.10" vaporized=""/>
    <tripinfo id="158" depart="163.00" departLane="-gneE12_0" departPos="5.10" departSpeed="0.00" departDelay="5.00" arrival="242.00" arrivalLane="-gneE14_0" arrivalPos="76.83" arrivalSpeed="14.72" duration="79.00" routeLength="123.80" waitingTime="62.00" waitingCount="1" stopTime="0.00" timeLoss="70.13" rerouteNo="0" devices="tripinfo_158" vType="DEFAULT_VEHTYPE" speedFactor="1.07" vaporized=""/>
    <tripinfo id="163" depart="166.00" departLane="-gneE12_0" departPos="5.10" departSpeed="0.00" departDelay="3.00" arrival="245.00" arrivalLane="-gneE14_0" arrivalPos="76.83" arrivalSpeed="13.54" duration="79.00" routeLength="123.80" waitingTime="60.00" waitingCount="1" stopTime="0.00" timeLoss="69.31" rerouteNo="0" devices="tripinfo_163" vType="DEFAULT_VEHTYPE" speedFactor="1.03" vaporized=""/>
    <tripinfo id="168" depart="169.00" departLane="-gneE12_0" departPos="5.10" departSpeed="0.00" departDelay="1.00" arrival="249.00" arrivalLane="gneE10_0" arrivalPos="87.42" arrivalSpeed="15.27" duration="80.00" routeLength="139.20" waitingTime="59.00" waitingCount="1" stopTime="0.00" timeLoss="69.93" rerouteNo="0" devices="tripinfo_168" vType="DEFAULT_VEHTYPE" speedFactor="1.15" vaporized=""/>
    <tripinfo id="170" depart="172.00" departLane="-gneE12_0" departPos="5.10" departSpeed="0.00" departDelay="2.00" arrival="250.00" arrivalLane="-gneE14_0" arrivalPos="76.83" arrivalSpeed="13.72" duration="78.00" routeLength="123.80" waitingTime="58.00" waitingCount="1" stopTime="0.00" timeLoss="68.32" rerouteNo="0" devices="tripinfo_170" vType="DEFAULT_VEHTYPE" speedFactor="1.03" vaporized=""/>
    <tripinfo id="176" depart="240.00" departLane="-gneE12_0" departPos="5.10" departSpeed="0.00" departDelay="64.00" arrival="255.00" arrivalLane="-gneE14_0" arrivalPos="76.83" arrivalSpeed="14.39" duration="15.00" routeLength="123.80" waitingTime="0.00" waitingCount="0" stopTime="0.00" timeLoss="5.52" rerouteNo="0" devices="tripinfo_176" vType="DEFAULT_VEHTYPE" speedFactor="1.07" vaporized=""/>
    <tripinfo id="172" depart="237.00" departLane="-gneE12_0" departPos="5.10" departSpeed="0.00" departDelay="65.00" arrival="256.00" arrivalLane="gneE10_0" arrivalPos="87.42" arrivalSpeed="10.72" duration="19.00" routeLength="139.20" waitingTime="0.00" waitingCount="0" stopTime="0.00" timeLoss="5.42" rerouteNo="0" devices="tripinfo_172" vType="DEFAULT_VEHTYPE" speedFactor="0.82" vaporized=""/>
    <tripinfo id="187" depart="243.00" departLane="-gneE12_0" departPos="5.10" departSpeed="0.00" departDelay="56.00" arrival="257.00" arrivalLane="-gneE14_0" arrivalPos="76.83" arrivalSpeed="14.60" duration="14.00" routeLength="123.80" waitingTime="0.00" waitingCount="0" stopTime="0.00" timeLoss="5.48" rerouteNo="0" devices="tripinfo_187" vType="DEFAULT_VEHTYPE" speedFactor="1.12" vaporized=""/>
    <tripinfo id="193" depart="246.00" departLane="-gneE12_0" departPos="5.10" departSpeed="0.00" departDelay="53.00" arrival="257.00" arrivalLane="gneE9_0" arrivalPos="39.25" arrivalSpeed="12.15" duration="11.00" routeLength="91.36" waitingTime="0.00" waitingCount="0" stopTime="0.00" timeLoss="3.14" rerouteNo="0" devices="tripinfo_193" vType="DEFAULT_VEHTYPE" speedFactor="0.94" vaporized=""/>
    <tripinfo id="97" depart="156.00" departLane="-gneE9_0" departPos="5.10" departSpeed="0.00" departDelay="59.00" arrival="263.00" arrivalLane="-gneE14_0" arrivalPos="76.83" arrivalSpeed="13.47" duration="107.00" routeLength="125.29" waitingTime="77.00" waitingCount="3" stopTime="0.00" timeLoss="96.87" rerouteNo="0" devices="tripinfo_97" vType="DEFAULT_VEHTYPE" speedFactor="1.03" vaporized=""/>
    <tripinfo id="100" depart="180.00" departLane="-gneE9_0" departPos="5.10" departSpeed="0.00" departDelay="80.00" arrival="263.00" arrivalLane="gneE12_0" arrivalPos="42.58" arrivalSpeed="13.15" duration="83.00" routeLength="91.21" waitingTime="60.00" waitingCount="2" stopTime="0.00" timeLoss="75.79" rerouteNo="0" devices="tripinfo_100" vType="DEFAULT_VEHTYPE" speedFactor="1.01" vaporized=""/>
    <tripinfo id="103" depart="184.00" departLane="-gneE9_0" departPos="5.10" departSpeed="0.00" departDelay="81.00" arrival="264.00" arrivalLane="gneE12_0" arrivalPos="42.58" arrivalSpeed="13.03" duration="80.00" routeLength="91.21" waitingTime="60.00" waitingCount="2" stopTime="0.00" timeLoss="73.38" rerouteNo="0" devices="tripinfo_103" vType="DEFAULT_VEHTYPE" speedFactor="1.00" vaporized=""/>
    <tripinfo id="109" depart="187.00" departLane="-gneE9_0" departPos="5.10" departSpeed="0.00" departDelay="78.00" arrival="270.00" arrivalLane="-gneE14_0" arrivalPos="76.83" arrivalSpeed="12.77" duration="83.00" routeLength="125.29" waitingTime="58.00" waitingCount="2" stopTime="0.00" timeLoss="72.48" rerouteNo="0" devices="tripinfo_109" vType="DEFAULT_VEHTYPE" speedFactor="1.00" vaporized=""/>
    <tripinfo id="121" depart="238.00" departLane="-gneE9_0" departPos="5.10" departSpeed="0.00" departDelay="117.00" arrival="271.00" arrivalLane="gneE12_0" arrivalPos="42.58" arrivalSpeed="12.60" duration="33.00" routeLength="91.21" waitingTime="16.00" waitingCount="1" stopTime="0.00" timeLoss="25.70" rerouteNo="0" devices="tripinfo_121" vType="DEFAULT_VEHTYPE" speedFactor="0.92" vaporized=""/>
    <tripinfo id="110" depart="190.00" departLane="-gneE9_0" departPos="5.10" departSpeed="0.00" departDelay="80.00" arrival="272.00" arrivalLane="gneE10_0" arrivalPos="87.42" arrivalSpeed="13.19" duration="82.00" routeLength="130.60" waitingTime="57.00" waitingCount="2" stopTime="0.00" timeLoss="72.41" rerouteNo="0" devices="tripinfo_110" vType="DEFAULT_VEHTYPE" speedFactor="1.04" vaporized=""/>
    <tripinfo id="134" depart="261.00" departLane="-gneE9_0" departPos="5.10" departSpeed="0.00" departDelay="127.00" arrival="278.00" arrivalLane="gneE10_0" arrivalPos="87.42" arrivalSpeed="12.47" duration="17.00" routeLength="130.60" waitingTime="1.00" waitingCount="1" stopTime="0.00" timeLoss="6.04" rerouteNo="0" devices="tripinfo_134" vType="DEFAULT_VEHTYPE" speedFactor="0.97" vaporized=""/>