<?xml version="1.0" encoding="UTF-8"?>

<!-- generated on Wed 19 Aug 2020 18:05:53 by Eclipse SUMO GUI Version 1.4.0
<configuration xmlns:xsi="http://www.w3.org/2001/XMLSchema-instance" xsi:noNamespaceSchemaLocation="http://sumo.dlr.de/xsd/sumoConfiguration.xsd">

    <input>
        <net-file value="4way.net.xml"/>
        <route-files value="4way.rou.xml"/>
        <additional-files value="4way.add.xml"/>
    </input>

    <output>
        <tripinfo-output value="tripinfo.xml"/>
    </output>

    <traci_server>
        <remote-port value="32863"/>
    </traci_server>

</configuration>
-->

<tripinfos xmlns:xsi="http://www.w3.org/2001/XMLSchema-instance" xsi:noNamespaceSchemaLocation="http://sumo.dlr.de/xsd/tripinfo_file.xsd">
    <tripinfo id="6" depart="6.00" departLane="-gneE12_0" departPos="5.10" departSpeed="0.00" departDelay="0.00" arrival="21.00" arrivalLane="gneE10_0" arrivalPos="87.42" arrivalSpeed="12.92" duration="15.00" routeLength="139.20" waitingTime="0.00" waitingCount="0" stopTime="0.00" timeLoss="3.97" rerouteNo="0" devices="tripinfo_6" vType="DEFAULT_VEHTYPE" speedFactor="1.01" vaporized=""/>
    <tripinfo id="13" depart="13.00" departLane="-gneE12_0" departPos="5.10" departSpeed="0.00" departDelay="0.00" arrival="28.00" arrivalLane="gneE11_0" arrivalPos="76.83" arrivalSpeed="14.42" duration="15.00" routeLength="123.80" waitingTime="0.00" waitingCount="0" stopTime="0.00" timeLoss="5.57" rerouteNo="0" devices="tripinfo_13" vType="DEFAULT_VEHTYPE" speedFactor="1.05" vaporized=""/>
    <tripinfo id="18" depart="18.00" departLane="-gneE9_0" departPos="5.10" departSpeed="0.00" departDelay="0.00" arrival="28.00" arrivalLane="gneE12_0" arrivalPos="42.58" arrivalSpeed="15.13" duration="10.00" routeLength="91.21" waitingTime="0.00" waitingCount="0" stopTime="0.00" timeLoss="3.24" rerouteNo="0" devices="tripinfo_18" vType="DEFAULT_VEHTYPE" speedFactor="1.09" vaporized=""/>
    <tripinfo id="21" depart="21.00" departLane="-gneE12_0" departPos="5.10" departSpeed="0.00" departDelay="0.00" arrival="31.00" arrivalLane="gneE9_0" arrivalPos="39.25" arrivalSpeed="13.28" duration="10.00" routeLength="91.36" waitingTime="0.00" waitingCount="0" stopTime="0.00" timeLoss="3.49" rerouteNo="0" devices="tripinfo_21" vType="DEFAULT_VEHTYPE" speedFactor="1.05" vaporized=""/>
    <tripinfo id="24" depart="24.00" departLane="-gneE9_0" departPos="5.10" departSpeed="0.00" departDelay="0.00" arrival="35.00" arrivalLane="gneE12_0" arrivalPos="42.58" arrivalSpeed="12.56" duration="11.00" routeLength="91.21" waitingTime="0.00" waitingCount="0" stopTime="0.00" timeLoss="3.66" rerouteNo="0" devices="tripinfo_24" vType="DEFAULT_VEHTYPE" speedFactor="0.99" vaporized=""/>
    <tripinfo id="19" depart="21.00" departLane="-gneE9_0" departPos="5.10" departSpeed="0.00" departDelay="2.00" arrival="36.00" arrivalLane="gneE11_0" arrivalPos="76.83" arrivalSpeed="13.42" duration="15.00" routeLength="125.29" waitingTime="0.00" waitingCount="0" stopTime="0.00" timeLoss="5.25" rerouteNo="0" devices="tripinfo_19" vType="DEFAULT_VEHTYPE" speedFactor="1.03" vaporized=""/>
    <tripinfo id="11" depart="11.00" departLane="-gneE11_0" departPos="5.10" departSpeed="0.00" departDelay="0.00" arrival="39.00" arrivalLane="gneE12_0" arrivalPos="42.58" arrivalSpeed="14.02" duration="28.00" routeLength="128.69" waitingTime="9.00" waitingCount="1" stopTime="0.00" timeLoss="17.50" rerouteNo="0" devices="tripinfo_11" vType="DEFAULT_VEHTYPE" speedFactor="1.03" vaporized=""/>
    <tripinfo id="16" depart="16.00" departLane="-gneE11_0" departPos="5.10" departSpeed="0.00" departDelay="0.00" arrival="45.00" arrivalLane="gneE10_0" arrivalPos="87.42" arrivalSpeed="12.95" duration="29.00" routeLength="173.64" waitingTime="5.00" waitingCount="1" stopTime="0.00" timeLoss="14.73" rerouteNo="0" devices="tripinfo_16" vType="DEFAULT_VEHTYPE" speedFactor="0.94" vaporized=""/>
    <tripinfo id="35" depart="35.00" departLane="-gneE9_0" departPos="5.10" departSpeed="0.00" departDelay="0.00" arrival="50.00" arrivalLane="gneE11_0" arrivalPos="76.83" arrivalSpeed="12.93" duration="15.00" routeLength="125.29" waitingTime="0.00" waitingCount="0" stopTime="0.00" timeLoss="5.04" rerouteNo="0" devices="tripinfo_35" vType="DEFAULT_VEHTYPE" speedFactor="1.02" vaporized=""/>
    <tripinfo id="0" depart="0.00" departLane="-gneE10_0" departPos="5.10" departSpeed="0.00" departDelay="0.00" arrival="52.00" arrivalLane="gneE9_0" arrivalPos="39.25" arrivalSpeed="14.25" duration="52.00" routeLength="135.90" waitingTime="32.00" waitingCount="1" stopTime="0.00" timeLoss="41.66" rerouteNo="0" devices="tripinfo_0" vType="DEFAULT_VEHTYPE" speedFactor="1.06" vaporized=""/>
    <tripinfo id="22" depart="22.00" departLane="-gneE11_0" departPos="5.10" departSpeed="0.00" departDelay="0.00" arrival="53.00" arrivalLane="gneE10_0" arrivalPos="87.42" arrivalSpeed="14.79" duration="31.00" routeLength="173.64" waitingTime="6.00" waitingCount="2" stopTime="0.00" timeLoss="19.11" rerouteNo="0" devices="tripinfo_22" vType="DEFAULT_VEHTYPE" speedFactor="1.12" vaporized=""/>
    <tripinfo id="7" depart="7.00" departLane="-gneE10_0" departPos="5.10" departSpeed="0.00" departDelay="0.00" arrival="56.00" arrivalLane="gneE12_0" arrivalPos="42.58" arrivalSpeed="14.92" duration="49.00" routeLength="133.99" waitingTime="28.00" waitingCount="1" stopTime="0.00" timeLoss="39.13" rerouteNo="0" devices="tripinfo_7" vType="DEFAULT_VEHTYPE" speedFactor="1.08" vaporized=""/>
    <tripinfo id="2" depart="3.00" departLane="-gneE10_0" departPos="5.10" departSpeed="0.00" departDelay="1.00" arrival="57.00" arrivalLane="gneE11_0" arrivalPos="76.83" arrivalSpeed="11.90" duration="54.00" routeLength="173.82" waitingTime="29.00" waitingCount="1" stopTime="0.00" timeLoss="40.25" rerouteNo="0" devices="tripinfo_2" vType="DEFAULT_VEHTYPE" speedFactor="0.94" vaporized=""/>
    <tripinfo id="41" depart="41.00" departLane="-gneE11_0" departPos="5.10" departSpeed="0.00" departDelay="0.00" arrival="58.00" arrivalLane="gneE9_0" arrivalPos="39.25" arrivalSpeed="11.07" duration="17.00" routeLength="120.05" waitingTime="0.00" waitingCount="0" stopTime="0.00" timeLoss="5.56" rerouteNo="0" devices="tripinfo_41" vType="DEFAULT_VEHTYPE" speedFactor="0.87" vaporized=""/>
    <tripinfo id="31" depart="31.00" departLane="-gneE11_0" departPos="5.10" departSpeed="0.00" departDelay="0.00" arrival="59.00" arrivalLane="gneE10_0" arrivalPos="87.42" arrivalSpeed="12.64" duration="28.00" routeLength="173.64" waitingTime="2.00" waitingCount="1" stopTime="0.00" timeLoss="14.01" rerouteNo="0" devices="tripinfo_31" vType="DEFAULT_VEHTYPE" speedFactor="0.94" vaporized=""/>
    <tripinfo id="12" depart="12.00" departLane="-gneE10_0" departPos="5.10" departSpeed="0.00" departDelay="0.00" arrival="62.00" arrivalLane="gneE11_0" arrivalPos="76.83" arrivalSpeed="10.33" duration="50.00" routeLength="173.82" waitingTime="25.00" waitingCount="1" stopTime="0.00" timeLoss="34.38" rerouteNo="0" devices="tripinfo_12" vType="DEFAULT_VEHTYPE" speedFactor="0.83" vaporized=""/>
    <tripinfo id="15" depart="15.00" departLane="-gneE10_0" departPos="5.10" departSpeed="0.00" departDelay="0.00" arrival="64.00" arrivalLane="gneE11_0" arrivalPos="76.83" arrivalSpeed="11.35" duration="49.00" routeLength="173.82" waitingTime="23.00" waitingCount="1" stopTime="0.00" timeLoss="34.17" rerouteNo="0" devices="tripinfo_15" vType="DEFAULT_VEHTYPE" speedFactor="0.89" vaporized=""/>
    <tripinfo id="17" depart="18.00" departLane="-gneE10_0" departPos="5.10" departSpeed="0.00" departDelay="1.00" arrival="64.00" arrivalLane="gneE12_0" arrivalPos="42.58" arrivalSpeed="11.71" duration="46.00" routeLength="133.99" waitingTime="21.00" waitingCount="1" stopTime="0.00" timeLoss="33.50" rerouteNo="0" devices="tripinfo_17" vType="DEFAULT_VEHTYPE" speedFactor="0.86" vaporized=""/>
    <tripinfo id="25" depart="25.00" departLane="-gneE10_0" departPos="5.10" departSpeed="0.00" departDelay="0.00" arrival="69.00" arrivalLane="gneE11_0" arrivalPos="76.83" arrivalSpeed="12.27" duration="44.00" routeLength="173.82" waitingTime="15.00" waitingCount="1" stopTime="0.00" timeLoss="29.75" rerouteNo="0" devices="tripinfo_25" vType="DEFAULT_VEHTYPE" speedFactor="0.93" vaporized=""/>
    <tripinfo id="26" depart="28.00" departLane="-gneE10_0" departPos="5.10" departSpeed="0.00" departDelay="2.00" arrival="71.00" arrivalLane="gneE11_0" arrivalPos="76.83" arrivalSpeed="11.97" duration="43.00" routeLength="173.82" waitingTime="15.00" waitingCount="1" stopTime="0.00" timeLoss="28.14" rerouteNo="0" devices="tripinfo_26" vType="DEFAULT_VEHTYPE" speedFactor="0.88" vaporized=""/>
    <tripinfo id="28" depart="31.00" departLane="-gneE10_0" departPos="5.10" departSpeed="0.00" departDelay="3.00" arrival="72.00" arrivalLane="gneE9_0" arrivalPos="39.25" arrivalSpeed="13.06" duration="41.00" routeLength="135.90" waitingTime="14.00" waitingCount="1" stopTime="0.00" timeLoss="29.24" rerouteNo="0" devices="tripinfo_28" vType="DEFAULT_VEHTYPE" speedFactor="0.94" vaporized=""/>
    <tripinfo id="32" depart="34.00" departLane="-gneE10_0" departPos="5.10" departSpeed="0.00" departDelay="2.00" arrival="73.00" arrivalLane="gneE12_0" arrivalPos="42.58" arrivalSpeed="14.96" duration="39.00" routeLength="133.99" waitingTime="14.00" waitingCount="1" stopTime="0.00" timeLoss="29.74" rerouteNo="0" devices="tripinfo_32" vType="DEFAULT_VEHTYPE" speedFactor="1.16" vaporized=""/>
    <tripinfo id="38" depart="38.00" departLane="-gneE10_0" departPos="5.10" departSpeed="0.00" departDelay="0.00" arrival="77.00" arrivalLane="gneE9_0" arrivalPos="39.25" arrivalSpeed="12.51" duration="39.00" routeLength="135.90" waitingTime="13.00" waitingCount="1" stopTime="0.00" timeLoss="27.44" rerouteNo="0" devices="tripinfo_38" vType="DEFAULT_VEHTYPE" speedFactor="0.98" vaporized=""/>
    <tripinfo id="39" depart="57.00" departLane="-gneE10_0" departPos="5.10" departSpeed="0.00" departDelay="18.00" arrival="79.00" arrivalLane="gneE9_0" arrivalPos="39.25" arrivalSpeed="11.67" duration="22.00" routeLength="135.90" waitingTime="0.00" waitingCount="0" stopTime="0.00" timeLoss="9.71" rerouteNo="0" devices="tripinfo_39" vType="DEFAULT_VEHTYPE" speedFactor="0.89" vaporized=""/>
    <tripinfo id="40" depart="60.00" departLane="-gneE10_0" departPos="5.10" departSpeed="0.00" departDelay="20.00" arrival="84.00" arrivalLane="gneE11_0" arrivalPos="76.83" arrivalSpeed="11.16" duration="24.00" routeLength="173.82" waitingTime="0.00" waitingCount="0" stopTime="0.00" timeLoss="8.64" rerouteNo="0" devices="tripinfo_40" vType="DEFAULT_VEHTYPE" speedFactor="0.83" vaporized=""/>
    <tripinfo id="43" depart="64.00" departLane="-gneE10_0" departPos="5.10" departSpeed="0.00" departDelay="21.00" arrival="84.00" arrivalLane="gneE12_0" arrivalPos="42.58" arrivalSpeed="12.36" duration="20.00" routeLength="133.99" waitingTime="0.00" waitingCount="0" stopTime="0.00" timeLoss="8.59" rerouteNo="0" devices="tripinfo_43" vType="DEFAULT_VEHTYPE" speedFactor="0.92" vaporized=""/>
    <tripinfo id="58" depart="58.00" departLane="-gneE11_0" departPos="5.10" departSpeed="0.00" departDelay="0.00" arrival="84.00" arrivalLane="gneE9_0" arrivalPos="39.25" arrivalSpeed="12.36" duration="26.00" routeLength="120.05" waitingTime="6.00" waitingCount="1" stopTime="0.00" timeLoss="15.88" rerouteNo="0" devices="tripinfo_58" vType="DEFAULT_VEHTYPE" speedFactor="0.97" vaporized=""/>
    <tripinfo id="54" depart="54.00" departLane="-gneE11_0" departPos="5.10" departSpeed="0.00" departDelay="0.00" arrival="86.00" arrivalLane="gneE10_0" arrivalPos="87.42" arrivalSpeed="13.04" duration="32.00" routeLength="173.64" waitingTime="7.00" waitingCount="1" stopTime="0.00" timeLoss="18.97" rerouteNo="0" devices="tripinfo_54" vType="DEFAULT_VEHTYPE" speedFactor="0.99" vaporized=""/>
    <tripinfo id="45" depart="70.00" departLane="-gneE10_0" departPos="5.10" departSpeed="0.00" departDelay="25.00" arrival="88.00" arrivalLane="gneE9_0" arrivalPos="39.25" arrivalSpeed="14.89" duration="18.00" routeLength="135.90" waitingTime="0.00" waitingCount="0" stopTime="0.00" timeLoss="8.16" rerouteNo="0" devices="tripinfo_45" vType="DEFAULT_VEHTYPE" speedFactor="1.13" vaporized=""/>
    <tripinfo id="44" depart="67.00" departLane="-gneE10_0" departPos="5.10" departSpeed="0.00" departDelay="23.00" arrival="89.00" arrivalLane="gneE11_0" arrivalPos="76.83" arrivalSpeed="13.05" duration="22.00" routeLength="173.82" waitingTime="0.00" waitingCount="0" stopTime="0.00" timeLoss="8.22" rerouteNo="0" devices="tripinfo_44" vType="DEFAULT_VEHTYPE" speedFactor="0.95" vaporized=""/>
    <tripinfo id="46" depart="73.00" departLane="-gneE10_0" departPos="5.10" departSpeed="0.00" departDelay="27.00" arrival="91.00" arrivalLane="gneE9_0" arrivalPos="39.25" arrivalSpeed="12.27" duration="18.00" routeLength="135.90" waitingTime="0.00" waitingCount="0" stopTime="0.00" timeLoss="6.57" rerouteNo="0" devices="tripinfo_46" vType="DEFAULT_VEHTYPE" speedFactor="0.93" vaporized=""/>
    <tripinfo id="69" depart="69.00" departLane="-gneE11_0" departPos="5.10" departSpeed="0.00" departDelay="0.00" arrival="97.00" arrivalLane="gneE10_0" arrivalPos="87.42" arrivalSpeed="13.25" duration="28.00" routeLength="173.64" waitingTime="5.00" waitingCount="1" stopTime="0.00" timeLoss="15.87" rerouteNo="0" devices="tripinfo_69" vType="DEFAULT_VEHTYPE" speedFactor="1.04" vaporized=""/>
    <tripinfo id="47" depart="47.00" departLane="-gneE9_0" departPos="5.10" departSpeed="0.00" departDelay="0.00" arrival="99.00" arrivalLane="gneE11_0" arrivalPos="76.83" arrivalSpeed="16.04" duration="52.00" routeLength="125.29" waitingTime="34.00" waitingCount="1" stopTime="0.00" timeLoss="43.60" rerouteNo="0" devices="tripinfo_47" vType="DEFAULT_VEHTYPE" speedFactor="1.18" vaporized=""/>
    <tripinfo id="37" depart="37.00" departLane="-gneE12_0" departPos="5.10" departSpeed="0.00" departDelay="0.00" arrival="100.00" arrivalLane="gneE10_0" arrivalPos="87.42" arrivalSpeed="13.86" duration="63.00" routeLength="139.20" waitingTime="43.00" waitingCount="1" stopTime="0.00" timeLoss="52.45" rerouteNo="0" devices="tripinfo_37" vType="DEFAULT_VEHTYPE" speedFactor="1.01" vaporized=""/>
    <tripinfo id="50" depart="50.00" departLane="-gneE12_0" departPos="5.10" departSpeed="0.00" departDelay="0.00" arrival="107.00" arrivalLane="gneE10_0" arrivalPos="87.42" arrivalSpeed="12.96" duration="57.00" routeLength="139.20" waitingTime="33.00" waitingCount="2" stopTime="0.00" timeLoss="45.94" rerouteNo="0" devices="tripinfo_50" vType="DEFAULT_VEHTYPE" speedFactor="1.01" vaporized=""/>
    <tripinfo id="51" depart="53.00" departLane="-gneE12_0" departPos="5.10" departSpeed="0.00" departDelay="2.00" arrival="108.00" arrivalLane="gneE11_0" arrivalPos="76.83" arrivalSpeed="15.29" duration="55.00" routeLength="123.80" waitingTime="31.00" waitingCount="1" stopTime="0.00" timeLoss="46.74" rerouteNo="0" devices="tripinfo_51" vType="DEFAULT_VEHTYPE" speedFactor="1.17" vaporized=""/>
    <tripinfo id="65" depart="65.00" departLane="-gneE9_0" departPos="5.10" departSpeed="0.00" departDelay="0.00" arrival="111.00" arrivalLane="gneE12_0" arrivalPos="42.58" arrivalSpeed="14.22" duration="46.00" routeLength="91.21" waitingTime="26.00" waitingCount="2" stopTime="0.00" timeLoss="39.26" rerouteNo="0" devices="tripinfo_65" vType="DEFAULT_VEHTYPE" speedFactor="1.03" vaporized=""/>
    <tripinfo id="61" depart="61.00" departLane="-gneE9_0" departPos="5.10" departSpeed="0.00" departDelay="0.00" arrival="112.00" arrivalLane="gneE11_0" arrivalPos="76.83" arrivalSpeed="14.44" duration="51.00" routeLength="125.29" waitingTime="29.00" waitingCount="2" stopTime="0.00" timeLoss="41.72" rerouteNo="0" devices="tripinfo_61" vType="DEFAULT_VEHTYPE" speedFactor="1.10" vaporized=""/>
    <tripinfo id="68" depart="68.00" departLane="-gneE9_0" departPos="5.10" departSpeed="0.00" departDelay="0.00" arrival="116.00" arrivalLane="gneE11_0" arrivalPos="76.83" arrivalSpeed="13.79" duration="48.00" routeLength="125.29" waitingTime="23.00" waitingCount="2" stopTime="0.00" timeLoss="38.37" rerouteNo="0" devices="tripinfo_68" vType="DEFAULT_VEHTYPE" speedFactor="1.04" vaporized=""/>
    <tripinfo id="67" depart="67.00" departLane="-gneE12_0" departPos="5.10" departSpeed="0.00" departDelay="0.00" arrival="117.00" arrivalLane="gneE10_0" arrivalPos="87.42" arrivalSpeed="15.05" duration="50.00" routeLength="139.20" waitingTime="21.00" waitingCount="2" stopTime="0.00" timeLoss="39.79" rerouteNo="0" devices="tripinfo_67" vType="DEFAULT_VEHTYPE" speedFactor="1.09" vaporized=""/>
    <tripinfo id="70" depart="71.00" departLane="-gneE9_0" departPos="5.10" departSpeed="0.00" departDelay="1.00" arrival="119.00" arrivalLane="gneE11_0" arrivalPos="76.83" arrivalSpeed="14.61" duration="48.00" routeLength="125.29" waitingTime="23.00" waitingCount="2" stopTime="0.00" timeLoss="38.35" rerouteNo="0" devices="tripinfo_70" vType="DEFAULT_VEHTYPE" speedFactor="1.09" vaporized=""/>
    <tripinfo id="71" depart="71.00" departLane="-gneE12_0" departPos="5.10" departSpeed="0.00" departDelay="0.00" arrival="120.00" arrivalLane="gneE10_0" arrivalPos="87.42" arrivalSpeed="13.35" duration="49.00" routeLength="139.20" waitingTime="19.00" waitingCount="2" stopTime="0.00" timeLoss="37.97" rerouteNo="0" devices="tripinfo_71" vType="DEFAULT_VEHTYPE" speedFactor="1.00" vaporized=""/>
    <tripinfo id="72" depart="96.00" departLane="-gneE9_0" departPos="5.10" departSpeed="0.00" departDelay="24.00" arrival="128.00" arrivalLane="gneE11_0" arrivalPos="76.83" arrivalSpeed="12.02" duration="32.00" routeLength="125.29" waitingTime="7.00" waitingCount="2" stopTime="0.00" timeLoss="20.75" rerouteNo="0" devices="tripinfo_72" vType="DEFAULT_VEHTYPE" speedFactor="0.90" vaporized=""/>
    <tripinfo id="89" depart="98.00" departLane="-gneE12_0" departPos="5.10" departSpeed="0.00" departDelay="9.00" arrival="128.00" arrivalLane="gneE9_0" arrivalPos="39.25" arrivalSpeed="12.21" duration="30.00" routeLength="91.36" waitingTime="2.00" waitingCount="1" stopTime="0.00" timeLoss="22.33" rerouteNo="0" devices="tripinfo_89" vType="DEFAULT_VEHTYPE" speedFactor="0.97" vaporized=""/>
    <tripinfo id="76" depart="95.00" departLane="-gneE12_0" departPos="5.10" departSpeed="0.00" departDelay="19.00" arrival="129.00" arrivalLane="gneE10_0" arrivalPos="87.42" arrivalSpeed="10.86" duration="34.00" routeLength="139.20" waitingTime="3.00" waitingCount="2" stopTime="0.00" timeLoss="21.32" rerouteNo="0" devices="tripinfo_76" vType="DEFAULT_VEHTYPE" speedFactor="0.85" vaporized=""/>
    <tripinfo id="78" depart="99.00" departLane="-gneE9_0" departPos="5.10" departSpeed="0.00" departDelay="21.00" arrival="131.00" arrivalLane="gneE10_0" arrivalPos="87.42" arrivalSpeed="15.48" duration="32.00" routeLength="130.60" waitingTime="7.00" waitingCount="2" stopTime="0.00" timeLoss="23.30" rerouteNo="0" devices="tripinfo_78" vType="DEFAULT_VEHTYPE" speedFactor="1.17" vaporized=""/>
    <tripinfo id="73" depart="73.00" departLane="-gneE11_0" departPos="5.10" departSpeed="0.00" departDelay="0.00" arrival="132.00" arrivalLane="gneE12_0" arrivalPos="42.58" arrivalSpeed="11.21" duration="59.00" routeLength="128.69" waitingTime="33.00" waitingCount="3" stopTime="0.00" timeLoss="47.63" rerouteNo="0" devices="tripinfo_73" vType="DEFAULT_VEHTYPE" speedFactor="0.88" vaporized=""/>
    <tripinfo id="87" depart="87.00" departLane="-gneE11_0" departPos="5.10" departSpeed="0.00" departDelay="0.00" arrival="133.00" arrivalLane="gneE9_0" arrivalPos="39.25" arrivalSpeed="14.14" duration="46.00" routeLength="120.05" waitingTime="25.00" waitingCount="2" stopTime="0.00" timeLoss="37.41" rerouteNo="0" devices="tripinfo_87" vType="DEFAULT_VEHTYPE" speedFactor="1.14" vaporized=""/>
    <tripinfo id="80" depart="110.00" departLane="-gneE9_0" departPos="5.10" departSpeed="0.00" departDelay="30.00" arrival="135.00" arrivalLane="gneE10_0" arrivalPos="87.42" arrivalSpeed="12.99" duration="25.00" routeLength="130.60" waitingTime="1.00" waitingCount="1" stopTime="0.00" timeLoss="14.58" rerouteNo="0" devices="tripinfo_80" vType="DEFAULT_VEHTYPE" speedFactor="1.02" vaporized=""/>
    <tripinfo id="88" depart="116.00" departLane="-gneE9_0" departPos="5.10" departSpeed="0.00" departDelay="28.00" arrival="135.00" arrivalLane="gneE12_0" arrivalPos="42.58" arrivalSpeed="14.21" duration="19.00" routeLength="91.21" waitingTime="1.00" waitingCount="1" stopTime="0.00" timeLoss="12.17" rerouteNo="0" devices="tripinfo_88" vType="DEFAULT_VEHTYPE" speedFactor="1.02" vaporized=""/>
    <tripinfo id="81" depart="113.00" departLane="-gneE9_0" departPos="5.10" departSpeed="0.00" departDelay="32.00" arrival="137.00" arrivalLane="gneE10_0" arrivalPos="87.42" arrivalSpeed="14.12" duration="24.00" routeLength="130.60" waitingTime="2.00" waitingCount="1" stopTime="0.00" timeLoss="14.10" rerouteNo="0" devices="tripinfo_81" vType="DEFAULT_VEHTYPE" speedFactor="1.10" vaporized=""/>
    <tripinfo id="48" depart="76.00" departLane="-gneE10_0" departPos="5.10" departSpeed="0.00" departDelay="28.00" arrival="142.00" arrivalLane="gneE9_0" arrivalPos="39.25" arrivalSpeed="14.39" duration="66.00" routeLength="135.90" waitingTime="45.00" waitingCount="1" stopTime="0.00" timeLoss="56.27" rerouteNo="0" devices="tripinfo_48" vType="DEFAULT_VEHTYPE" speedFactor="1.15" vaporized=""/>
    <tripinfo id="96" depart="96.00" departLane="-gneE11_0" departPos="5.10" departSpeed="0.00" departDelay="0.00" arrival="142.00" arrivalLane="gneE10_0" arrivalPos="87.42" arrivalSpeed="11.42" duration="46.00" routeLength="173.64" waitingTime="18.00" waitingCount="2" stopTime="0.00" timeLoss="31.64" rerouteNo="0" devices="tripinfo_96" vType="DEFAULT_VEHTYPE" speedFactor="0.88" vaporized=""/>
    <tripinfo id="57" depart="79.00" departLane="-gneE10_0" departPos="5.10" departSpeed="0.00" departDelay="22.00" arrival="146.00" arrivalLane="gneE11_0" arrivalPos="76.83" arrivalSpeed="13.29" duration="67.00" routeLength="173.82" waitingTime="44.00" waitingCount="1" stopTime="0.00" timeLoss="54.34" rerouteNo="0" devices="tripinfo_57" vType="DEFAULT_VEHTYPE" speedFactor="1.02" vaporized=""/>
    <tripinfo id="60" depart="82.00" departLane="-gneE10_0" departPos="5.10" departSpeed="0.00" departDelay="22.00" arrival="148.00" arrivalLane="gneE11_0" arrivalPos="76.83" arrivalSpeed="15.73" duration="66.00" routeLength="173.82" waitingTime="43.00" waitingCount="1" stopTime="0.00" timeLoss="54.66" rerouteNo="0" devices="tripinfo_60" vType="DEFAULT_VEHTYPE" speedFactor="1.18" vaporized=""/>
    <tripinfo id="64" depart="85.00" departLane="-gneE10_0" departPos="5.10" departSpeed="0.00" departDelay="21.00" arrival="149.00" arrivalLane="gneE9_0" arrivalPos="39.25" arrivalSpeed="11.38" duration="64.00" routeLength="135.90" waitingTime="43.00" waitingCount="1" stopTime="0.00" timeLoss="51.85" rerouteNo="0" devices="tripinfo_64" vType="DEFAULT_VEHTYPE" speedFactor="0.90" vaporized=""/>
    <tripinfo id="100" depart="100.00" departLane="-gneE11_0" departPos="5.10" departSpeed="0.00" departDelay="0.00" arrival="149.00" arrivalLane="gneE10_0" arrivalPos="87.42" arrivalSpeed="14.09" duration="49.00" routeLength="173.64" waitingTime="13.00" waitingCount="1" stopTime="0.00" timeLoss="36.07" rerouteNo="0" devices="tripinfo_100" vType="DEFAULT_VEHTYPE" speedFactor="1.04" vaporized=""/>
    <tripinfo id="66" depart="88.00" departLane="-gneE10_0" departPos="5.10" departSpeed="0.00" departDelay="22.00" arrival="153.00" arrivalLane="gneE11_0" arrivalPos="76.83" arrivalSpeed="12.75" duration="65.00" routeLength="173.82" waitingTime="40.00" waitingCount="1" stopTime="0.00" timeLoss="51.74" rerouteNo="0" devices="tripinfo_66" vType="DEFAULT_VEHTYPE" speedFactor="0.96" vaporized=""/>
    <tripinfo id="74" depart="91.00" departLane="-gneE10_0" departPos="5.10" departSpeed="0.00" departDelay="17.00" arrival="155.00" arrivalLane="gneE9_0" arrivalPos="39.25" arrivalSpeed="11.72" duration="64.00" routeLength="135.90" waitingTime="39.00" waitingCount="1" stopTime="0.00" timeLoss="50.83" rerouteNo="0" devices="tripinfo_74" vType="DEFAULT_VEHTYPE" speedFactor="0.85" vaporized=""/>
    <tripinfo id="82" depart="94.00" departLane="-gneE10_0" departPos="5.10" departSpeed="0.00" departDelay="12.00" arrival="158.00" arrivalLane="gneE11_0" arrivalPos="76.83" arrivalSpeed="13.38" duration="64.00" routeLength="173.82" waitingTime="37.00" waitingCount="1" stopTime="0.00" timeLoss="51.19" rerouteNo="0" devices="tripinfo_82" vType="DEFAULT_VEHTYPE" speedFactor="1.00" vaporized=""/>
    <tripinfo id="85" depart="97.00" departLane="-gneE10_0" departPos="5.10" departSpeed="0.00" departDelay="12.00" arrival="160.00" arrivalLane="gneE11_0" arrivalPos="76.83" arrivalSpeed="13.09" duration="63.00" routeLength="173.82" waitingTime="35.00" waitingCount="1" stopTime="0.00" timeLoss="50.00" rerouteNo="0" devices="tripinfo_85" vType="DEFAULT_VEHTYPE" speedFactor="1.00" vaporized=""/>
    <tripinfo id="86" depart="100.00" departLane="-gneE10_0" departPos="5.10" departSpeed="0.00" departDelay="14.00" arrival="161.00" arrivalLane="gneE12_0" arrivalPos="42.58" arrivalSpeed="11.40" duration="61.00" routeLength="133.99" waitingTime="34.00" waitingCount="1" stopTime="0.00" timeLoss="49.35" rerouteNo="0" devices="tripinfo_86" vType="DEFAULT_VEHTYPE" speedFactor="0.90" vaporized=""/>
    <tripinfo id="104" depart="104.00" departLane="-gneE11_0" departPos="5.10" departSpeed="0.00" departDelay="0.00" arrival="161.00" arrivalLane="gneE10_0" arrivalPos="87.42" arrivalSpeed="13.61" duration="57.00" routeLength="173.64" waitingTime="18.00" waitingCount="2" stopTime="0.00" timeLoss="44.47" rerouteNo="0" devices="tripinfo_104" vType="DEFAULT_VEHTYPE" speedFactor="1.02" vaporized=""/>
    <tripinfo id="90" depart="103.00" departLane="-gneE10_0" departPos="5.10" departSpeed="0.00" departDelay="13.00" arrival="163.00" arrivalLane="gneE12_0" arrivalPos="42.58" arrivalSpeed="13.97" duration="60.00" routeLength="133.99" waitingTime="35.00" waitingCount="1" stopTime="0.00" timeLoss="49.90" rerouteNo="0" devices="tripinfo_90" vType="DEFAULT_VEHTYPE" speedFactor="1.08" vaporized=""/>
    <tripinfo id="91" depart="106.00" departLane="-gneE10_0" departPos="5.10" departSpeed="0.00" departDelay="15.00" arrival="167.00" arrivalLane="gneE11_0" arrivalPos="76.83" arrivalSpeed="15.50" duration="61.00" routeLength="173.82" waitingTime="33.00" waitingCount="1" stopTime="0.00" timeLoss="49.16" rerouteNo="0" devices="tripinfo_91" vType="DEFAULT_VEHTYPE" speedFactor="1.12" vaporized=""/>
    <tripinfo id="92" depart="147.00" departLane="-gneE10_0" departPos="5.10" departSpeed="0.00" departDelay="55.00" arrival="168.00" arrivalLane="gneE9_0" arrivalPos="39.25" arrivalSpeed="12.95" duration="21.00" routeLength="135.90" waitingTime="0.00" waitingCount="0" stopTime="0.00" timeLoss="9.73" rerouteNo="0" devices="tripinfo_92" vType="DEFAULT_VEHTYPE" speedFactor="1.02" vaporized=""/>
    <tripinfo id="94" depart="151.00" departLane="-gneE10_0" departPos="5.10" departSpeed="0.00" departDelay="57.00" arrival="171.00" arrivalLane="gneE12_0" arrivalPos="42.58" arrivalSpeed="12.75" duration="20.00" routeLength="133.99" waitingTime="0.00" waitingCount="0" stopTime="0.00" timeLoss="7.77" rerouteNo="0" devices="tripinfo_94" vType="DEFAULT_VEHTYPE" speedFactor="0.94" vaporized=""/>
    <tripinfo id="97" depart="154.00" departLane="-gneE10_0" departPos="5.10" departSpeed="0.00" departDelay="57.00" arrival="175.00" arrivalLane="gneE11_0" arrivalPos="76.83" arrivalSpeed="12.08" duration="21.00" routeLength="173.82" waitingTime="0.00" waitingCount="0" stopTime="0.00" timeLoss="6.74" rerouteNo="0" devices="tripinfo_97" vType="DEFAULT_VEHTYPE" speedFactor="0.91" vaporized=""/>
    <tripinfo id="102" depart="158.00" departLane="-gneE10_0" departPos="5.10" departSpeed="0.00" departDelay="56.00" arrival="177.00" arrivalLane="gneE11_0" arrivalPos="76.83" arrivalSpeed="13.55" duration="19.00" routeLength="173.82" waitingTime="0.00" waitingCount="0" stopTime="0.00" timeLoss="6.03" rerouteNo="0" devices="tripinfo_102" vType="DEFAULT_VEHTYPE" speedFactor="1.02" vaporized=""/>
    <tripinfo id="110" depart="161.00" departLane="-gneE10_0" departPos="5.10" departSpeed="0.00" departDelay="51.00" arrival="179.00" arrivalLane="gneE11_0" arrivalPos="76.83" arrivalSpeed="12.53" duration="18.00" routeLength="173.82" waitingTime="0.00" waitingCount="0" stopTime="0.00" timeLoss="4.01" rerouteNo="0" devices="tripinfo_110" vType="DEFAULT_VEHTYPE" speedFactor="0.96" vaporized=""/>
    <tripinfo id="111" depart="164.00" departLane="-gneE10_0" departPos="5.10" departSpeed="0.00" departDelay="53.00" arrival="180.00" arrivalLane="gneE12_0" arrivalPos="42.58" arrivalSpeed="12.79" duration="16.00" routeLength="133.99" waitingTime="0.00" waitingCount="0" stopTime="0.00" timeLoss="5.16" rerouteNo="0" devices="tripinfo_111" vType="DEFAULT_VEHTYPE" speedFactor="0.98" vaporized=""/>
    <tripinfo id="105" depart="107.00" departLane="-gneE11_0" departPos="5.10" departSpeed="0.00" departDelay="2.00" arrival="184.00" arrivalLane="gneE12_0" arrivalPos="42.58" arrivalSpeed="12.49" duration="77.00" routeLength="128.69" waitingTime="36.00" waitingCount="3" stopTime="0.00" timeLoss="66.46" rerouteNo="0" devices="tripinfo_105" vType="DEFAULT_VEHTYPE" speedFactor="0.97" vaporized=""/>
    <tripinfo id="127" depart="127.00" departLane="-gneE12_0" departPos="5.10" departSpeed="0.00" departDelay="0.00" arrival="186.00" arrivalLane="gneE9_0" arrivalPos="39.25" arrivalSpeed="14.32" duration="59.00" routeLength="91.36" waitingTime="45.00" waitingCount="1" stopTime="0.00" timeLoss="52.59" rerouteNo="0" devices="tripinfo_127" vType="DEFAULT_VEHTYPE" speedFactor="1.04" vaporized=""/>