<?xml version="1.0" encoding="UTF-8"?>

<!-- generated on Wed 19 Aug 2020 15:34:11 by Eclipse SUMO GUI Version 1.4.0
<configuration xmlns:xsi="http://www.w3.org/2001/XMLSchema-instance" xsi:noNamespaceSchemaLocation="http://sumo.dlr.de/xsd/sumoConfiguration.xsd">

    <input>
        <net-file value="tjun.net.xml"/>
        <route-files value="tjun.rou.xml"/>
        <additional-files value="tjun.add.xml"/>
    </input>

    <output>
        <tripinfo-output value="tripinfo.xml"/>
    </output>

    <traci_server>
        <remote-port value="49909"/>
    </traci_server>

</configuration>
-->

<tripinfos xmlns:xsi="http://www.w3.org/2001/XMLSchema-instance" xsi:noNamespaceSchemaLocation="http://sumo.dlr.de/xsd/tripinfo_file.xsd">
    <tripinfo id="carflow_2.0" depart="0.00" departLane="-gneE5_0" departPos="5.10" departSpeed="0.00" departDelay="0.00" arrival="27.00" arrivalLane="gneE7_0" arrivalPos="71.33" arrivalSpeed="6.60" duration="27.00" routeLength="191.54" waitingTime="0.00" waitingCount="0" stopTime="0.00" timeLoss="6.81" rerouteNo="0" devices="tripinfo_carflow_2.0 routing_carflow_2.0" vType="car" speedFactor="1.01" vaporized=""/>
    <tripinfo id="evflow_10.0" depart="5.00" departLane="-gneE5_0" departPos="7.10" departSpeed="0.00" departDelay="5.00" arrival="29.00" arrivalLane="gneE7_0" arrivalPos="71.33" arrivalSpeed="17.28" duration="24.00" routeLength="189.54" waitingTime="0.00" waitingCount="0" stopTime="0.00" timeLoss="13.74" rerouteNo="0" devices="tripinfo_evflow_10.0 routing_evflow_10.0" vType="ev" speedFactor="2.00" vaporized=""/>
    <tripinfo id="carflow_0.0" depart="0.00" departLane="-gneE6_0" departPos="5.10" departSpeed="0.00" departDelay="0.00" arrival="30.00" arrivalLane="gneE5_0" arrivalPos="116.16" arrivalSpeed="8.50" duration="30.00" routeLength="229.82" waitingTime="0.00" waitingCount="0" stopTime="0.00" timeLoss="6.45" rerouteNo="0" devices="tripinfo_carflow_0.0 routing_carflow_0.0" vType="car" speedFactor="1.06" vaporized=""/>
    <tripinfo id="carflow_3.0" depart="2.00" departLane="-gneE5_0" departPos="5.10" departSpeed="0.00" departDelay="2.00" arrival="33.00" arrivalLane="gneE6_0" arrivalPos="104.39" arrivalSpeed="9.25" duration="31.00" routeLength="229.84" waitingTime="0.00" waitingCount="0" stopTime="0.00" timeLoss="7.16" rerouteNo="0" devices="tripinfo_carflow_3.0 routing_carflow_3.0" vType="car" speedFactor="1.08" vaporized=""/>
    <tripinfo id="evflow_11.0" depart="8.00" departLane="-gneE5_0" departPos="7.10" departSpeed="0.00" departDelay="8.00" arrival="35.00" arrivalLane="gneE6_0" arrivalPos="104.39" arrivalSpeed="12.44" duration="27.00" routeLength="227.84" waitingTime="0.00" waitingCount="0" stopTime="0.00" timeLoss="15.57" rerouteNo="0" devices="tripinfo_evflow_11.0 routing_evflow_11.0" vType="ev" speedFactor="2.00" vaporized=""/>
    <tripinfo id="carflow_1.0" depart="3.00" departLane="-gneE6_0" departPos="5.10" departSpeed="0.00" departDelay="3.00" arrival="38.00" arrivalLane="gneE7_0" arrivalPos="71.33" arrivalSpeed="8.51" duration="35.00" routeLength="184.89" waitingTime="6.00" waitingCount="2" stopTime="0.00" timeLoss="15.97" rerouteNo="0" devices="tripinfo_carflow_1.0 routing_carflow_1.0" vType="car" speedFactor="0.94" vaporized=""/>
    <tripinfo id="evflow_20.0" depart="6.00" departLane="-gneE6_0" departPos="7.10" departSpeed="0.00" departDelay="6.00" arrival="40.00" arrivalLane="gneE7_0" arrivalPos="71.33" arrivalSpeed="19.31" duration="34.00" routeLength="182.89" waitingTime="3.00" waitingCount="2" stopTime="0.00" timeLoss="24.40" rerouteNo="0" devices="tripinfo_evflow_20.0 routing_evflow_20.0" vType="ev" speedFactor="2.00" vaporized=""/>
    <tripinfo id="evflow_21.0" depart="8.00" departLane="-gneE6_0" departPos="7.10" departSpeed="0.00" departDelay="8.00" arrival="42.00" arrivalLane="gneE5_0" arrivalPos="116.16" arrivalSpeed="19.90" duration="34.00" routeLength="227.82" waitingTime="1.00" waitingCount="1" stopTime="0.00" timeLoss="22.50" rerouteNo="0" devices="tripinfo_evflow_21.0 routing_evflow_21.0" vType="ev" speedFactor="2.00" vaporized=""/>
    <tripinfo id="carflow_2.1" depart="20.00" departLane="-gneE5_0" departPos="5.10" departSpeed="0.00" departDelay="0.00" arrival="50.00" arrivalLane="gneE7_0" arrivalPos="71.33" arrivalSpeed="7.84" duration="30.00" routeLength="191.54" waitingTime="0.00" waitingCount="0" stopTime="0.00" timeLoss="9.72" rerouteNo="0" devices="tripinfo_carflow_2.1 routing_carflow_2.1" vType="car" speedFactor="1.05" vaporized=""/>
    <tripinfo id="carflow_0.1" depart="25.00" departLane="-gneE6_0" departPos="5.10" departSpeed="0.00" departDelay="0.00" arrival="55.00" arrivalLane="gneE5_0" arrivalPos="116.16" arrivalSpeed="8.78" duration="30.00" routeLength="229.82" waitingTime="0.00" waitingCount="0" stopTime="0.00" timeLoss="6.96" rerouteNo="0" devices="tripinfo_carflow_0.1 routing_carflow_0.1" vType="car" speedFactor="0.94" vaporized=""/>
    <tripinfo id="carflow_4.0" depart="0.00" departLane="-gneE7_0" departPos="5.10" departSpeed="0.00" departDelay="0.00" arrival="61.00" arrivalLane="gneE6_0" arrivalPos="104.39" arrivalSpeed="9.13" duration="61.00" routeLength="179.65" waitingTime="30.00" waitingCount="1" stopTime="0.00" timeLoss="42.45" rerouteNo="0" devices="tripinfo_carflow_4.0 routing_carflow_4.0" vType="car" speedFactor="1.03" vaporized=""/>
    <tripinfo id="evflow_1.0" depart="9.00" departLane="-gneE7_0" departPos="7.10" departSpeed="0.00" departDelay="9.00" arrival="65.00" arrivalLane="gneE6_0" arrivalPos="104.39" arrivalSpeed="15.27" duration="56.00" routeLength="177.65" waitingTime="22.00" waitingCount="1" stopTime="0.00" timeLoss="46.47" rerouteNo="0" devices="tripinfo_evflow_1.0 routing_evflow_1.0" vType="ev" speedFactor="2.00" vaporized=""/>
    <tripinfo id="carflow_2.2" depart="40.00" departLane="-gneE5_0" departPos="5.10" departSpeed="0.00" departDelay="0.00" arrival="66.00" arrivalLane="gneE7_0" arrivalPos="71.33" arrivalSpeed="7.49" duration="26.00" routeLength="191.54" waitingTime="0.00" waitingCount="0" stopTime="0.00" timeLoss="5.99" rerouteNo="0" devices="tripinfo_carflow_2.2 routing_carflow_2.2" vType="car" speedFactor="1.09" vaporized=""/>
    <tripinfo id="carflow_5.0" depart="2.00" departLane="-gneE7_0" departPos="5.10" departSpeed="0.00" departDelay="2.00" arrival="67.00" arrivalLane="gneE5_0" arrivalPos="116.16" arrivalSpeed="8.32" duration="65.00" routeLength="196.60" waitingTime="28.00" waitingCount="1" stopTime="0.00" timeLoss="43.98" rerouteNo="0" devices="tripinfo_carflow_5.0 routing_carflow_5.0" vType="car" speedFactor="0.83" vaporized=""/>
    <tripinfo id="evflow_0.0" depart="5.00" departLane="-gneE7_0" departPos="7.10" departSpeed="0.00" departDelay="5.00" arrival="70.00" arrivalLane="gneE5_0" arrivalPos="116.16" arrivalSpeed="10.14" duration="65.00" routeLength="194.60" waitingTime="23.00" waitingCount="1" stopTime="0.00" timeLoss="54.77" rerouteNo="0" devices="tripinfo_evflow_0.0 routing_evflow_0.0" vType="ev" speedFactor="2.00" vaporized=""/>
    <tripinfo id="carflow_5.1" depart="20.00" departLane="-gneE7_0" departPos="5.10" departSpeed="0.00" departDelay="0.00" arrival="78.00" arrivalLane="gneE5_0" arrivalPos="116.16" arrivalSpeed="9.41" duration="58.00" routeLength="196.60" waitingTime="20.00" waitingCount="2" stopTime="0.00" timeLoss="37.69" rerouteNo="0" devices="tripinfo_carflow_5.1 routing_carflow_5.1" vType="car" speedFactor="0.89" vaporized=""/>
    <tripinfo id="carflow_5.2" depart="40.00" departLane="-gneE7_0" departPos="5.10" departSpeed="0.00" departDelay="0.00" arrival="82.00" arrivalLane="gneE5_0" arrivalPos="116.16" arrivalSpeed="7.81" duration="42.00" routeLength="196.60" waitingTime="5.00" waitingCount="2" stopTime="0.00" timeLoss="21.65" rerouteNo="0" devices="tripinfo_carflow_5.2 routing_carflow_5.2" vType="car" speedFactor="1.03" vaporized=""/>
    <tripinfo id="carflow_4.1" depart="50.00" departLane="-gneE7_0" departPos="5.10" departSpeed="0.00" departDelay="0.00" arrival="84.00" arrivalLane="gneE6_0" arrivalPos="104.39" arrivalSpeed="7.45" duration="34.00" routeLength="179.65" waitingTime="0.00" waitingCount="0" stopTime="0.00" timeLoss="15.02" rerouteNo="0" devices="tripinfo_carflow_4.1 routing_carflow_4.1" vType="car" speedFactor="0.93" vaporized=""/>
    <tripinfo id="carflow_5.3" depart="60.00" departLane="-gneE7_0" departPos="5.10" departSpeed="0.00" departDelay="0.00" arrival="88.00" arrivalLane="gneE5_0" arrivalPos="116.16" arrivalSpeed="8.43" duration="28.00" routeLength="196.60" waitingTime="0.00" waitingCount="0" stopTime="0.00" timeLoss="7.13" rerouteNo="0" devices="tripinfo_carflow_5.3 routing_carflow_5.3" vType="car" speedFactor="0.94" vaporized=""/>
    <tripinfo id="carflow_2.3" depart="60.00" departLane="-gneE5_0" departPos="5.10" departSpeed="0.00" departDelay="0.00" arrival="105.00" arrivalLane="gneE7_0" arrivalPos="71.33" arrivalSpeed="7.38" duration="45.00" routeLength="191.54" waitingTime="9.00" waitingCount="1" stopTime="0.00" timeLoss="25.25" rerouteNo="0" devices="tripinfo_carflow_2.3 routing_carflow_2.3" vType="car" speedFactor="0.88" vaporized=""/>
    <tripinfo id="carflow_3.1" depart="50.00" departLane="-gneE5_0" departPos="5.10" departSpeed="0.00" departDelay="0.00" arrival="106.00" arrivalLane="gneE6_0" arrivalPos="104.39" arrivalSpeed="9.63" duration="56.00" routeLength="229.84" waitingTime="14.00" waitingCount="1" stopTime="0.00" timeLoss="32.73" rerouteNo="0" devices="tripinfo_carflow_3.1 routing_carflow_3.1" vType="car" speedFactor="0.99" vaporized=""/>
    <tripinfo id="carflow_2.4" depart="80.00" departLane="-gneE5_0" departPos="5.10" departSpeed="0.00" departDelay="0.00" arrival="109.00" arrivalLane="gneE7_0" arrivalPos="71.33" arrivalSpeed="9.79" duration="29.00" routeLength="191.54" waitingTime="0.00" waitingCount="0" stopTime="0.00" timeLoss="8.62" rerouteNo="0" devices="tripinfo_carflow_2.4 routing_carflow_2.4" vType="car" speedFactor="1.02" vaporized=""/>
    <tripinfo id="carflow_1.1" depart="28.00" departLane="-gneE6_0" departPos="5.10" departSpeed="0.00" departDelay="3.00" arrival="112.00" arrivalLane="gneE7_0" arrivalPos="71.33" arrivalSpeed="7.32" duration="84.00" routeLength="184.89" waitingTime="43.00" waitingCount="4" stopTime="0.00" timeLoss="64.80" rerouteNo="0" devices="tripinfo_carflow_1.1 routing_carflow_1.1" vType="car" speedFactor="0.86" vaporized=""/>
    <tripinfo id="carflow_1.2" depart="53.00" departLane="-gneE6_0" departPos="5.10" departSpeed="0.00" departDelay="3.00" arrival="117.00" arrivalLane="gneE7_0" arrivalPos="71.33" arrivalSpeed="8.33" duration="64.00" routeLength="184.89" waitingTime="20.00" waitingCount="2" stopTime="0.00" timeLoss="45.00" rerouteNo="0" devices="tripinfo_carflow_1.2 routing_carflow_1.2" vType="car" speedFactor="1.12" vaporized=""/>
    <tripinfo id="carflow_0.2" depart="50.00" departLane="-gneE6_0" departPos="5.10" departSpeed="0.00" departDelay="0.00" arrival="121.00" arrivalLane="gneE5_0" arrivalPos="116.16" arrivalSpeed="7.64" duration="71.00" routeLength="229.82" waitingTime="23.00" waitingCount="2" stopTime="0.00" timeLoss="47.40" rerouteNo="0" devices="tripinfo_carflow_0.2 routing_carflow_0.2" vType="car" speedFactor="1.05" vaporized=""/>
    <tripinfo id="carflow_0.3" depart="75.00" departLane="-gneE6_0" departPos="5.10" departSpeed="0.00" departDelay="0.00" arrival="126.00" arrivalLane="gneE5_0" arrivalPos="116.16" arrivalSpeed="7.65" duration="51.00" routeLength="229.82" waitingTime="4.00" waitingCount="4" stopTime="0.00" timeLoss="27.49" rerouteNo="0" devices="tripinfo_carflow_0.3 routing_carflow_0.3" vType="car" speedFactor="0.94" vaporized=""/>
    <tripinfo id="carflow_1.3" depart="78.00" departLane="-gneE6_0" departPos="5.10" departSpeed="0.00" departDelay="3.00" arrival="126.00" arrivalLane="gneE7_0" arrivalPos="71.33" arrivalSpeed="6.91" duration="48.00" routeLength="184.89" waitingTime="0.00" waitingCount="0" stopTime="0.00" timeLoss="29.06" rerouteNo="0" devices="tripinfo_carflow_1.3 routing_carflow_1.3" vType="car" speedFactor="1.16" vaporized=""/>
    <tripinfo id="carflow_5.4" depart="80.00" departLane="-gneE7_0" departPos="5.10" departSpeed="0.00" departDelay="0.00" arrival="152.00" arrivalLane="gneE5_0" arrivalPos="116.16" arrivalSpeed="8.79" duration="72.00" routeLength="196.60" waitingTime="39.00" waitingCount="1" stopTime="0.00" timeLoss="51.93" rerouteNo="0" devices="tripinfo_carflow_5.4 routing_carflow_5.4" vType="car" speedFactor="1.01" vaporized=""/>
