<?xml version="1.0" encoding="UTF-8"?>

<!-- generated on 09/10/20 00:03:03 by Eclipse SUMO GUI Version 1.6.0
<configuration xmlns:xsi="http://www.w3.org/2001/XMLSchema-instance" xsi:noNamespaceSchemaLocation="http://sumo.dlr.de/xsd/sumoConfiguration.xsd">

    <input>
        <net-file value="C:\Users\TLOU%20LEBELO\Documents\GitHub\Traffic-Light-Optimization\tl_optimization\main_app\simulation\generic\road_intersection.net.xml"/>
        <route-files value="C:\Users\TLOU%20LEBELO\Documents\GitHub\Traffic-Light-Optimization\tl_optimization\main_app\simulation\generic\traffic.rou.xml"/>
    </input>

    <output>
        <tripinfo-output value="C:\Users\TLOU%20LEBELO\Documents\GitHub\Traffic-Light-Optimization\tl_optimization\main_app\simulation\generic\tripinfo.xml"/>
    </output>

    <traci_server>
        <remote-port value="64511"/>
    </traci_server>

    <gui_only>
        <quit-on-end value="true"/>
        <start value="true"/>
    </gui_only>

</configuration>
-->

<tripinfos xmlns:xsi="http://www.w3.org/2001/XMLSchema-instance" xsi:noNamespaceSchemaLocation="http://sumo.dlr.de/xsd/tripinfo_file.xsd">
</tripinfos>
