<?xml version="1.0" encoding="UTF-8"?>

<!-- generated on 09/08/20 03:43:05 by Eclipse SUMO GUI Version 1.6.0
<configuration xmlns:xsi="http://www.w3.org/2001/XMLSchema-instance" xsi:noNamespaceSchemaLocation="http://sumo.dlr.de/xsd/sumoConfiguration.xsd">

    <input>
        <net-file value="C:\Users\TLOU%20LEBELO\Documents\GitHub\Traffic-Light-Optimization\tl_optimization\main_app\simulation\generic\road_intersection.net.xml"/>
        <route-files value="C:\Users\TLOU%20LEBELO\Documents\GitHub\Traffic-Light-Optimization\tl_optimization\main_app\simulation\generic\traffic.rou.xml"/>
    </input>

    <output>
        <tripinfo-output value="C:\Users\TLOU%20LEBELO\Documents\GitHub\Traffic-Light-Optimization\tl_optimization\main_app\simulation\generic\tripinfo.xml"/>
    </output>

    <traci_server>
        <remote-port value="61034"/>
    </traci_server>

    <gui_only>
        <quit-on-end value="true"/>
        <start value="true"/>
    </gui_only>

</configuration>
-->

<tripinfos xmlns:xsi="http://www.w3.org/2001/XMLSchema-instance" xsi:noNamespaceSchemaLocation="http://sumo.dlr.de/xsd/tripinfo_file.xsd">
    <tripinfo id="C_A.0" depart="0.00" departLane="inC_0" departPos="5.10" departSpeed="0.00" departDelay="0.00" arrival="10.00" arrivalLane="outA_0" arrivalPos="23.50" arrivalSpeed="20.12" duration="10.00" routeLength="104.30" waitingTime="0.00" waitingCount="0" stopTime="0.00" timeLoss="6.39" rerouteNo="0" devices="tripinfo_C_A.0 routing_C_A.0" vType="DEFAULT_VEHTYPE" speedFactor="1.03" vaporized=""/>
    <tripinfo id="C_B.0" depart="3.00" departLane="inC_0" departPos="5.10" departSpeed="0.00" departDelay="3.00" arrival="18.00" arrivalLane="outB_0" arrivalPos="22.00" arrivalSpeed="5.65" duration="15.00" routeLength="97.43" waitingTime="0.00" waitingCount="0" stopTime="0.00" timeLoss="6.98" rerouteNo="0" devices="tripinfo_C_B.0 routing_C_B.0" vType="DEFAULT_VEHTYPE" speedFactor="0.83" vaporized=""/>
    <tripinfo id="A_B.0" depart="0.00" departLane="inA_0" departPos="5.10" departSpeed="0.00" departDelay="0.00" arrival="20.00" arrivalLane="outB_0" arrivalPos="22.00" arrivalSpeed="7.16" duration="20.00" routeLength="54.59" waitingTime="9.00" waitingCount="1" stopTime="0.00" timeLoss="14.46" rerouteNo="0" devices="tripinfo_A_B.0 routing_A_B.0" vType="DEFAULT_VEHTYPE" speedFactor="1.06" vaporized=""/>
    <tripinfo id="A_C.0" depart="3.00" departLane="inA_0" departPos="5.10" departSpeed="0.00" departDelay="3.00" arrival="25.00" arrivalLane="outC_0" arrivalPos="71.50" arrivalSpeed="16.80" duration="22.00" routeLength="104.30" waitingTime="6.00" waitingCount="1" stopTime="0.00" timeLoss="19.66" rerouteNo="0" devices="tripinfo_A_C.0 routing_A_C.0" vType="DEFAULT_VEHTYPE" speedFactor="0.94" vaporized=""/>
    <tripinfo id="B_A.0" depart="0.00" departLane="inB_0" departPos="5.10" departSpeed="0.00" departDelay="0.00" arrival="50.00" arrivalLane="outA_0" arrivalPos="23.50" arrivalSpeed="11.49" duration="50.00" routeLength="49.43" waitingTime="39.00" waitingCount="1" stopTime="0.00" timeLoss="47.58" rerouteNo="0" devices="tripinfo_B_A.0 routing_B_A.0" vType="DEFAULT_VEHTYPE" speedFactor="1.01" vaporized=""/>
    <tripinfo id="B_A.1" depart="45.00" departLane="inB_0" departPos="5.10" departSpeed="0.00" departDelay="9.00" arrival="55.00" arrivalLane="outA_0" arrivalPos="23.50" arrivalSpeed="10.40" duration="10.00" routeLength="49.43" waitingTime="0.00" waitingCount="0" stopTime="0.00" timeLoss="6.75" rerouteNo="0" devices="tripinfo_B_A.1 routing_B_A.1" vType="DEFAULT_VEHTYPE" speedFactor="0.94" vaporized=""/>
    <tripinfo id="B_C.0" depart="3.00" departLane="inB_0" departPos="5.10" departSpeed="0.00" departDelay="3.00" arrival="56.00" arrivalLane="outC_0" arrivalPos="71.50" arrivalSpeed="17.35" duration="53.00" routeLength="102.59" waitingTime="38.00" waitingCount="1" stopTime="0.00" timeLoss="49.33" rerouteNo="0" devices="tripinfo_B_C.0 routing_B_C.0" vType="DEFAULT_VEHTYPE" speedFactor="1.08" vaporized=""/>
    <tripinfo id="B_C.1" depart="49.00" departLane="inB_0" departPos="5.10" departSpeed="0.00" departDelay="13.00" arrival="62.00" arrivalLane="outC_0" arrivalPos="71.50" arrivalSpeed="17.42" duration="13.00" routeLength="102.59" waitingTime="0.00" waitingCount="0" stopTime="0.00" timeLoss="8.43" rerouteNo="0" devices="tripinfo_B_C.1 routing_B_C.1" vType="DEFAULT_VEHTYPE" speedFactor="0.86" vaporized=""/>
    <tripinfo id="C_A.1" depart="36.00" departLane="inC_0" departPos="5.10" departSpeed="0.00" departDelay="0.00" arrival="95.00" arrivalLane="outA_0" arrivalPos="23.50" arrivalSpeed="12.26" duration="59.00" routeLength="104.30" waitingTime="42.00" waitingCount="1" stopTime="0.00" timeLoss="55.87" rerouteNo="0" devices="tripinfo_C_A.1 routing_C_A.1" vType="DEFAULT_VEHTYPE" speedFactor="1.09" vaporized=""/>
    <tripinfo id="C_B.1" depart="39.00" departLane="inC_0" departPos="5.10" departSpeed="0.00" departDelay="3.00" arrival="98.00" arrivalLane="outB_0" arrivalPos="22.00" arrivalSpeed="6.90" duration="59.00" routeLength="97.43" waitingTime="40.00" waitingCount="1" stopTime="0.00" timeLoss="51.72" rerouteNo="0" devices="tripinfo_C_B.1 routing_C_B.1" vType="DEFAULT_VEHTYPE" speedFactor="1.03" vaporized=""/>
    <tripinfo id="C_A.2" depart="72.00" departLane="inC_0" departPos="5.10" departSpeed="0.00" departDelay="0.00" arrival="99.00" arrivalLane="outA_0" arrivalPos="23.50" arrivalSpeed="13.00" duration="27.00" routeLength="104.30" waitingTime="9.00" waitingCount="1" stopTime="0.00" timeLoss="23.09" rerouteNo="0" devices="tripinfo_C_A.2 routing_C_A.2" vType="DEFAULT_VEHTYPE" speedFactor="0.88" vaporized=""/>
    <tripinfo id="C_B.2" depart="75.00" departLane="inC_0" departPos="5.10" departSpeed="0.00" departDelay="3.00" arrival="103.00" arrivalLane="outB_0" arrivalPos="22.00" arrivalSpeed="6.47" duration="28.00" routeLength="97.43" waitingTime="7.00" waitingCount="1" stopTime="0.00" timeLoss="20.19" rerouteNo="0" devices="tripinfo_C_B.2 routing_C_B.2" vType="DEFAULT_VEHTYPE" speedFactor="0.94" vaporized=""/>
    <tripinfo id="A_B.1" depart="36.00" departLane="inA_0" departPos="5.10" departSpeed="0.00" departDelay="0.00" arrival="105.00" arrivalLane="outB_0" arrivalPos="22.00" arrivalSpeed="6.41" duration="69.00" routeLength="54.59" waitingTime="52.00" waitingCount="2" stopTime="0.00" timeLoss="63.44" rerouteNo="0" devices="tripinfo_A_B.1 routing_A_B.1" vType="DEFAULT_VEHTYPE" speedFactor="1.05" vaporized=""/>
    <tripinfo id="A_C.1" depart="39.00" departLane="inA_0" departPos="5.10" departSpeed="0.00" departDelay="3.00" arrival="110.00" arrivalLane="outC_0" arrivalPos="71.50" arrivalSpeed="18.54" duration="71.00" routeLength="104.30" waitingTime="51.00" waitingCount="2" stopTime="0.00" timeLoss="68.31" rerouteNo="0" devices="tripinfo_A_C.1 routing_A_C.1" vType="DEFAULT_VEHTYPE" speedFactor="0.89" vaporized=""/>
    <tripinfo id="A_B.2" depart="72.00" departLane="inA_0" departPos="5.10" departSpeed="0.00" departDelay="0.00" arrival="110.00" arrivalLane="outB_0" arrivalPos="22.00" arrivalSpeed="6.71" duration="38.00" routeLength="54.59" waitingTime="18.00" waitingCount="2" stopTime="0.00" timeLoss="32.76" rerouteNo="0" devices="tripinfo_A_B.2 routing_A_B.2" vType="DEFAULT_VEHTYPE" speedFactor="1.05" vaporized=""/>
    <tripinfo id="A_C.2" depart="95.00" departLane="inA_0" departPos="5.10" departSpeed="0.00" departDelay="23.00" arrival="114.00" arrivalLane="outC_0" arrivalPos="71.50" arrivalSpeed="18.57" duration="19.00" routeLength="104.30" waitingTime="3.00" waitingCount="1" stopTime="0.00" timeLoss="16.83" rerouteNo="0" devices="tripinfo_A_C.2 routing_A_C.2" vType="DEFAULT_VEHTYPE" speedFactor="1.12" vaporized=""/>
    <tripinfo id="B_A.2" depart="72.00" departLane="inB_0" departPos="5.10" departSpeed="0.00" departDelay="0.00" arrival="140.00" arrivalLane="outA_0" arrivalPos="23.50" arrivalSpeed="12.77" duration="68.00" routeLength="49.43" waitingTime="57.00" waitingCount="1" stopTime="0.00" timeLoss="65.26" rerouteNo="0" devices="tripinfo_B_A.2 routing_B_A.2" vType="DEFAULT_VEHTYPE" speedFactor="0.99" vaporized=""/>
    <tripinfo id="B_C.2" depart="75.00" departLane="inB_0" departPos="5.10" departSpeed="0.00" departDelay="3.00" arrival="146.00" arrivalLane="outC_0" arrivalPos="71.50" arrivalSpeed="17.94" duration="71.00" routeLength="102.59" waitingTime="56.00" waitingCount="1" stopTime="0.00" timeLoss="66.75" rerouteNo="0" devices="tripinfo_B_C.2 routing_B_C.2" vType="DEFAULT_VEHTYPE" speedFactor="0.93" vaporized=""/>
</tripinfos>
