<?xml version="1.0" encoding="UTF-8"?>

<!-- generated on 08/26/20 09:43:22 by Eclipse SUMO GUI Version 1.6.0
<configuration xmlns:xsi="http://www.w3.org/2001/XMLSchema-instance" xsi:noNamespaceSchemaLocation="http://sumo.dlr.de/xsd/sumoConfiguration.xsd">

    <input>
        <net-file value="4way.net.xml"/>
        <route-files value="4way.rou.xml"/>
        <additional-files value="4way.add.xml"/>
    </input>

    <output>
        <tripinfo-output value="tripinfo.xml"/>
    </output>

    <traci_server>
        <remote-port value="65519"/>
    </traci_server>

</configuration>
-->

<tripinfos xmlns:xsi="http://www.w3.org/2001/XMLSchema-instance" xsi:noNamespaceSchemaLocation="http://sumo.dlr.de/xsd/tripinfo_file.xsd">
    <tripinfo id="evflow_10.0" depart="0.00" departLane="-gneE9_0" departPos="7.10" departSpeed="0.00" departDelay="0.00" arrival="11.00" arrivalLane="gneE10_0" arrivalPos="87.42" arrivalSpeed="18.60" duration="11.00" routeLength="128.60" waitingTime="0.00" waitingCount="0" stopTime="0.00" timeLoss="3.58" rerouteNo="0" devices="tripinfo_evflow_10.0 routing_evflow_10.0" vType="ev" speedFactor="2.00" vaporized=""/>
    <tripinfo id="evflow_22.0" depart="7.00" departLane="-gneE9_0" departPos="7.10" departSpeed="0.00" departDelay="7.00" arrival="16.00" arrivalLane="gneE12_0" arrivalPos="42.58" arrivalSpeed="19.00" duration="9.00" routeLength="89.21" waitingTime="0.00" waitingCount="0" stopTime="0.00" timeLoss="4.30" rerouteNo="0" devices="tripinfo_evflow_22.0 routing_evflow_22.0" vType="ev" speedFactor="2.00" vaporized=""/>
    <tripinfo id="evflow_11.0" depart="3.00" departLane="-gneE9_0" departPos="7.10" departSpeed="0.00" departDelay="3.00" arrival="17.00" arrivalLane="gneE11_0" arrivalPos="76.83" arrivalSpeed="17.70" duration="14.00" routeLength="123.29" waitingTime="0.00" waitingCount="0" stopTime="0.00" timeLoss="7.11" rerouteNo="0" devices="tripinfo_evflow_11.0 routing_evflow_11.0" vType="ev" speedFactor="2.00" vaporized=""/>
    <tripinfo id="carflow_20.0" depart="0.00" departLane="-gneE12_0" departPos="5.10" departSpeed="0.00" departDelay="0.00" arrival="20.00" arrivalLane="gneE10_0" arrivalPos="87.42" arrivalSpeed="9.89" duration="20.00" routeLength="139.20" waitingTime="0.00" waitingCount="0" stopTime="0.00" timeLoss="5.29" rerouteNo="0" devices="tripinfo_carflow_20.0 routing_carflow_20.0" vType="car" speedFactor="1.09" vaporized=""/>
    <tripinfo id="carflow_10.0" depart="9.00" departLane="-gneE9_0" departPos="5.10" departSpeed="0.00" departDelay="9.00" arrival="29.00" arrivalLane="gneE10_0" arrivalPos="87.42" arrivalSpeed="7.51" duration="20.00" routeLength="130.60" waitingTime="0.00" waitingCount="0" stopTime="0.00" timeLoss="6.68" rerouteNo="0" devices="tripinfo_carflow_10.0 routing_carflow_10.0" vType="car" speedFactor="1.18" vaporized=""/>
    <tripinfo id="carflow_10.1" depart="13.00" departLane="-gneE9_0" departPos="5.10" departSpeed="0.00" departDelay="13.00" arrival="33.00" arrivalLane="gneE10_0" arrivalPos="87.42" arrivalSpeed="6.95" duration="20.00" routeLength="130.60" waitingTime="0.00" waitingCount="0" stopTime="0.00" timeLoss="6.35" rerouteNo="0" devices="tripinfo_carflow_10.1 routing_carflow_10.1" vType="car" speedFactor="1.15" vaporized=""/>
    <tripinfo id="carflow_10.2" depart="16.00" departLane="-gneE9_0" departPos="5.10" departSpeed="0.00" departDelay="16.00" arrival="37.00" arrivalLane="gneE10_0" arrivalPos="87.42" arrivalSpeed="8.38" duration="21.00" routeLength="130.60" waitingTime="0.00" waitingCount="0" stopTime="0.00" timeLoss="6.83" rerouteNo="0" devices="tripinfo_carflow_10.2 routing_carflow_10.2" vType="car" speedFactor="1.01" vaporized=""/>
    <tripinfo id="carflow_10.3" depart="19.00" departLane="-gneE9_0" departPos="5.10" departSpeed="0.00" departDelay="19.00" arrival="39.00" arrivalLane="gneE10_0" arrivalPos="87.42" arrivalSpeed="9.69" duration="20.00" routeLength="130.60" waitingTime="0.00" waitingCount="0" stopTime="0.00" timeLoss="6.62" rerouteNo="0" devices="tripinfo_carflow_10.3 routing_carflow_10.3" vType="car" speedFactor="1.17" vaporized=""/>
    <tripinfo id="carflow_10.4" depart="22.00" departLane="-gneE9_0" departPos="5.10" departSpeed="0.00" departDelay="22.00" arrival="43.00" arrivalLane="gneE10_0" arrivalPos="87.42" arrivalSpeed="8.23" duration="21.00" routeLength="130.60" waitingTime="0.00" waitingCount="0" stopTime="0.00" timeLoss="7.12" rerouteNo="0" devices="tripinfo_carflow_10.4 routing_carflow_10.4" vType="car" speedFactor="0.99" vaporized=""/>
    <tripinfo id="carflow_11.0" depart="25.00" departLane="-gneE9_0" departPos="5.10" departSpeed="0.00" departDelay="25.00" arrival="46.00" arrivalLane="gneE11_0" arrivalPos="76.83" arrivalSpeed="9.29" duration="21.00" routeLength="125.29" waitingTime="0.00" waitingCount="0" stopTime="0.00" timeLoss="7.29" rerouteNo="0" devices="tripinfo_carflow_11.0 routing_carflow_11.0" vType="car" speedFactor="1.02" vaporized=""/>
    <tripinfo id="carflow_20.1" depart="3.00" departLane="-gneE12_0" departPos="5.10" departSpeed="0.00" departDelay="3.00" arrival="46.00" arrivalLane="gneE10_0" arrivalPos="87.42" arrivalSpeed="6.71" duration="43.00" routeLength="139.20" waitingTime="15.00" waitingCount="1" stopTime="0.00" timeLoss="28.61" rerouteNo="0" devices="tripinfo_carflow_20.1 routing_carflow_20.1" vType="car" speedFactor="1.00" vaporized=""/>
    <tripinfo id="carflow_20.2" depart="6.00" departLane="-gneE12_0" departPos="5.10" departSpeed="0.00" departDelay="6.00" arrival="50.00" arrivalLane="gneE10_0" arrivalPos="87.42" arrivalSpeed="7.21" duration="44.00" routeLength="139.20" waitingTime="13.00" waitingCount="1" stopTime="0.00" timeLoss="29.40" rerouteNo="0" devices="tripinfo_carflow_20.2 routing_carflow_20.2" vType="car" speedFactor="0.90" vaporized=""/>
    <tripinfo id="carflow_11.1" depart="28.00" departLane="-gneE9_0" departPos="5.10" departSpeed="0.00" departDelay="28.00" arrival="51.00" arrivalLane="gneE11_0" arrivalPos="76.83" arrivalSpeed="9.44" duration="23.00" routeLength="125.29" waitingTime="0.00" waitingCount="0" stopTime="0.00" timeLoss="10.05" rerouteNo="0" devices="tripinfo_carflow_11.1 routing_carflow_11.1" vType="car" speedFactor="0.97" vaporized=""/>
    <tripinfo id="carflow_30.0" depart="0.00" departLane="-gneE10_0" departPos="5.10" departSpeed="0.00" departDelay="0.00" arrival="52.00" arrivalLane="gneE12_0" arrivalPos="42.58" arrivalSpeed="9.79" duration="52.00" routeLength="133.99" waitingTime="27.00" waitingCount="2" stopTime="0.00" timeLoss="38.12" rerouteNo="0" devices="tripinfo_carflow_30.0 routing_carflow_30.0" vType="car" speedFactor="1.08" vaporized=""/>
    <tripinfo id="carflow_20.3" depart="10.00" departLane="-gneE12_0" departPos="5.10" departSpeed="0.00" departDelay="10.00" arrival="55.00" arrivalLane="gneE10_0" arrivalPos="87.42" arrivalSpeed="7.30" duration="45.00" routeLength="139.20" waitingTime="13.00" waitingCount="2" stopTime="0.00" timeLoss="29.81" rerouteNo="0" devices="tripinfo_carflow_20.3 routing_carflow_20.3" vType="car" speedFactor="0.88" vaporized=""/>
    <tripinfo id="carflow_30.1" depart="3.00" departLane="-gneE10_0" departPos="5.10" departSpeed="0.00" departDelay="3.00" arrival="55.00" arrivalLane="gneE12_0" arrivalPos="42.58" arrivalSpeed="9.18" duration="52.00" routeLength="133.99" waitingTime="24.00" waitingCount="1" stopTime="0.00" timeLoss="37.77" rerouteNo="0" devices="tripinfo_carflow_30.1 routing_carflow_30.1" vType="car" speedFactor="1.12" vaporized=""/>
    <tripinfo id="carflow_0.0" depart="0.00" departLane="-gneE11_0" departPos="5.10" departSpeed="0.00" departDelay="0.00" arrival="60.00" arrivalLane="gneE10_0" arrivalPos="87.42" arrivalSpeed="7.03" duration="60.00" routeLength="173.64" waitingTime="30.00" waitingCount="1" stopTime="0.00" timeLoss="42.32" rerouteNo="0" devices="tripinfo_carflow_0.0 routing_carflow_0.0" vType="car" speedFactor="1.06" vaporized=""/>
    <tripinfo id="carflow_30.2" depart="8.00" departLane="-gneE10_0" departPos="5.10" departSpeed="0.00" departDelay="8.00" arrival="60.00" arrivalLane="gneE12_0" arrivalPos="42.58" arrivalSpeed="9.49" duration="52.00" routeLength="133.99" waitingTime="19.00" waitingCount="2" stopTime="0.00" timeLoss="37.72" rerouteNo="0" devices="tripinfo_carflow_30.2 routing_carflow_30.2" vType="car" speedFactor="1.02" vaporized=""/>
    <tripinfo id="carflow_0.1" depart="3.00" departLane="-gneE11_0" departPos="5.10" departSpeed="0.00" departDelay="3.00" arrival="63.00" arrivalLane="gneE10_0" arrivalPos="87.42" arrivalSpeed="7.80" duration="60.00" routeLength="173.64" waitingTime="27.00" waitingCount="2" stopTime="0.00" timeLoss="42.21" rerouteNo="0" devices="tripinfo_carflow_0.1 routing_carflow_0.1" vType="car" speedFactor="0.94" vaporized=""/>
    <tripinfo id="carflow_30.3" depart="12.00" departLane="-gneE10_0" departPos="5.10" departSpeed="0.00" departDelay="12.00" arrival="64.00" arrivalLane="gneE12_0" arrivalPos="42.58" arrivalSpeed="7.67" duration="52.00" routeLength="133.99" waitingTime="18.00" waitingCount="2" stopTime="0.00" timeLoss="37.93" rerouteNo="0" devices="tripinfo_carflow_30.3 routing_carflow_30.3" vType="car" speedFactor="0.99" vaporized=""/>
    <tripinfo id="carflow_0.2" depart="6.00" departLane="-gneE11_0" departPos="5.10" departSpeed="0.00" departDelay="6.00" arrival="68.00" arrivalLane="gneE10_0" arrivalPos="87.42" arrivalSpeed="7.03" duration="62.00" routeLength="173.64" waitingTime="26.00" waitingCount="1" stopTime="0.00" timeLoss="44.58" rerouteNo="0" devices="tripinfo_carflow_0.2 routing_carflow_0.2" vType="car" speedFactor="1.01" vaporized=""/>
    <tripinfo id="carflow_30.4" depart="16.00" departLane="-gneE10_0" departPos="5.10" departSpeed="0.00" departDelay="16.00" arrival="68.00" arrivalLane="gneE12_0" arrivalPos="42.58" arrivalSpeed="9.75" duration="52.00" routeLength="133.99" waitingTime="18.00" waitingCount="2" stopTime="0.00" timeLoss="37.28" rerouteNo="0" devices="tripinfo_carflow_30.4 routing_carflow_30.4" vType="car" speedFactor="0.94" vaporized=""/>
    <tripinfo id="carflow_0.3" depart="9.00" departLane="-gneE11_0" departPos="5.10" departSpeed="0.00" departDelay="9.00" arrival="72.00" arrivalLane="gneE10_0" arrivalPos="87.42" arrivalSpeed="7.53" duration="63.00" routeLength="173.64" waitingTime="25.00" waitingCount="3" stopTime="0.00" timeLoss="45.16" rerouteNo="0" devices="tripinfo_carflow_0.3 routing_carflow_0.3" vType="car" speedFactor="1.08" vaporized=""/>
    <tripinfo id="carflow_31.0" depart="18.00" departLane="-gneE10_0" departPos="5.10" departSpeed="0.00" departDelay="18.00" arrival="72.00" arrivalLane="gneE9_0" arrivalPos="39.25" arrivalSpeed="6.68" duration="54.00" routeLength="135.90" waitingTime="13.00" waitingCount="2" stopTime="0.00" timeLoss="39.49" rerouteNo="0" devices="tripinfo_carflow_31.0 routing_carflow_31.0" vType="car" speedFactor="0.88" vaporized=""/>
    <tripinfo id="carflow_31.1" depart="22.00" departLane="-gneE10_0" departPos="5.10" departSpeed="0.00" departDelay="22.00" arrival="77.00" arrivalLane="gneE9_0" arrivalPos="39.25" arrivalSpeed="6.55" duration="55.00" routeLength="135.90" waitingTime="14.00" waitingCount="2" stopTime="0.00" timeLoss="40.21" rerouteNo="0" devices="tripinfo_carflow_31.1 routing_carflow_31.1" vType="car" speedFactor="0.91" vaporized=""/>
    <tripinfo id="carflow_31.2" depart="25.00" departLane="-gneE10_0" departPos="5.10" departSpeed="0.00" departDelay="25.00" arrival="80.00" arrivalLane="gneE9_0" arrivalPos="39.25" arrivalSpeed="9.96" duration="55.00" routeLength="135.90" waitingTime="12.00" waitingCount="2" stopTime="0.00" timeLoss="40.37" rerouteNo="0" devices="tripinfo_carflow_31.2 routing_carflow_31.2" vType="car" speedFactor="0.91" vaporized=""/>
    <tripinfo id="carflow_31.3" depart="29.00" departLane="-gneE10_0" departPos="5.10" departSpeed="0.00" departDelay="29.00" arrival="83.00" arrivalLane="gneE9_0" arrivalPos="39.25" arrivalSpeed="8.53" duration="54.00" routeLength="135.90" waitingTime="8.00" waitingCount="2" stopTime="0.00" timeLoss="39.92" rerouteNo="0" devices="tripinfo_carflow_31.3 routing_carflow_31.3" vType="car" speedFactor="1.04" vaporized=""/>
    <tripinfo id="carflow_31.4" depart="33.00" departLane="-gneE10_0" departPos="5.10" departSpeed="0.00" departDelay="33.00" arrival="88.00" arrivalLane="gneE9_0" arrivalPos="39.25" arrivalSpeed="9.30" duration="55.00" routeLength="135.90" waitingTime="10.00" waitingCount="3" stopTime="0.00" timeLoss="40.64" rerouteNo="0" devices="tripinfo_carflow_31.4 routing_carflow_31.4" vType="car" speedFactor="1.02" vaporized=""/>
    <tripinfo id="carflow_32.0" depart="40.00" departLane="-gneE10_0" departPos="5.10" departSpeed="0.00" departDelay="40.00" arrival="95.00" arrivalLane="gneE11_0" arrivalPos="76.83" arrivalSpeed="8.79" duration="55.00" routeLength="173.82" waitingTime="6.00" waitingCount="3" stopTime="0.00" timeLoss="37.48" rerouteNo="0" devices="tripinfo_carflow_32.0 routing_carflow_32.0" vType="car" speedFactor="1.02" vaporized=""/>
    <tripinfo id="carflow_0.4" depart="12.00" departLane="-gneE11_0" departPos="5.10" departSpeed="0.00" departDelay="12.00" arrival="96.00" arrivalLane="gneE10_0" arrivalPos="87.42" arrivalSpeed="8.38" duration="84.00" routeLength="173.64" waitingTime="42.00" waitingCount="4" stopTime="0.00" timeLoss="66.40" rerouteNo="0" devices="tripinfo_carflow_0.4 routing_carflow_0.4" vType="car" speedFactor="1.03" vaporized=""/>
    <tripinfo id="carflow_32.1" depart="59.00" departLane="-gneE10_0" departPos="5.10" departSpeed="0.00" departDelay="59.00" arrival="99.00" arrivalLane="gneE11_0" arrivalPos="76.83" arrivalSpeed="9.88" duration="40.00" routeLength="173.82" waitingTime="1.00" waitingCount="1" stopTime="0.00" timeLoss="21.93" rerouteNo="0" devices="tripinfo_carflow_32.1 routing_carflow_32.1" vType="car" speedFactor="0.97" vaporized=""/>
    <tripinfo id="carflow_0.5" depart="15.00" departLane="-gneE11_0" departPos="5.10" departSpeed="0.00" departDelay="15.00" arrival="100.00" arrivalLane="gneE10_0" arrivalPos="87.42" arrivalSpeed="8.54" duration="85.00" routeLength="173.64" waitingTime="36.00" waitingCount="3" stopTime="0.00" timeLoss="66.80" rerouteNo="0" devices="tripinfo_carflow_0.5 routing_carflow_0.5" vType="car" speedFactor="0.83" vaporized=""/>
    <tripinfo id="carflow_21.0" depart="16.00" departLane="-gneE12_0" departPos="5.10" departSpeed="0.00" departDelay="16.00" arrival="100.00" arrivalLane="gneE9_0" arrivalPos="39.25" arrivalSpeed="8.81" duration="84.00" routeLength="91.36" waitingTime="47.00" waitingCount="5" stopTime="0.00" timeLoss="74.71" rerouteNo="0" devices="tripinfo_carflow_21.0 routing_carflow_21.0" vType="car" speedFactor="0.85" vaporized=""/>
    <tripinfo id="carflow_21.1" depart="21.00" departLane="-gneE12_0" departPos="5.10" departSpeed="0.00" departDelay="21.00" arrival="104.00" arrivalLane="gneE9_0" arrivalPos="39.25" arrivalSpeed="8.25" duration="83.00" routeLength="91.36" waitingTime="46.00" waitingCount="6" stopTime="0.00" timeLoss="73.42" rerouteNo="0" devices="tripinfo_carflow_21.1 routing_carflow_21.1" vType="car" speedFactor="1.17" vaporized=""/>
    <tripinfo id="carflow_20.4" depart="13.00" departLane="-gneE12_0" departPos="5.10" departSpeed="0.00" departDelay="13.00" arrival="105.00" arrivalLane="gneE10_0" arrivalPos="87.42" arrivalSpeed="8.45" duration="92.00" routeLength="139.20" waitingTime="52.00" waitingCount="5" stopTime="0.00" timeLoss="76.66" rerouteNo="0" devices="tripinfo_carflow_20.4 routing_carflow_20.4" vType="car" speedFactor="0.85" vaporized=""/>
    <tripinfo id="carflow_21.2" depart="42.00" departLane="-gneE12_0" departPos="5.10" departSpeed="0.00" departDelay="42.00" arrival="107.00" arrivalLane="gneE9_0" arrivalPos="39.25" arrivalSpeed="8.92" duration="65.00" routeLength="91.36" waitingTime="37.00" waitingCount="3" stopTime="0.00" timeLoss="55.30" rerouteNo="0" devices="tripinfo_carflow_21.2 routing_carflow_21.2" vType="car" speedFactor="1.02" vaporized=""/>
    <tripinfo id="carflow_21.3" depart="48.00" departLane="-gneE12_0" departPos="5.10" departSpeed="0.00" departDelay="48.00" arrival="110.00" arrivalLane="gneE9_0" arrivalPos="39.25" arrivalSpeed="7.93" duration="62.00" routeLength="91.36" waitingTime="36.00" waitingCount="3" stopTime="0.00" timeLoss="52.72" rerouteNo="0" devices="tripinfo_carflow_21.3 routing_carflow_21.3" vType="car" speedFactor="1.10" vaporized=""/>
    <tripinfo id="carflow_21.4" depart="95.00" departLane="-gneE12_0" departPos="5.10" departSpeed="0.00" departDelay="95.00" arrival="113.00" arrivalLane="gneE9_0" arrivalPos="39.25" arrivalSpeed="6.95" duration="18.00" routeLength="91.36" waitingTime="1.00" waitingCount="1" stopTime="0.00" timeLoss="8.54" rerouteNo="0" devices="tripinfo_carflow_21.4 routing_carflow_21.4" vType="car" speedFactor="1.00" vaporized=""/>
    <tripinfo id="carflow_22.0" depart="101.00" departLane="-gneE12_0" departPos="5.10" departSpeed="0.00" departDelay="101.00" arrival="122.00" arrivalLane="gneE11_0" arrivalPos="76.83" arrivalSpeed="6.65" duration="21.00" routeLength="123.80" waitingTime="0.00" waitingCount="0" stopTime="0.00" timeLoss="7.77" rerouteNo="0" devices="tripinfo_carflow_22.0 routing_carflow_22.0" vType="car" speedFactor="1.00" vaporized=""/>
    <tripinfo id="carflow_22.1" depart="105.00" departLane="-gneE12_0" departPos="5.10" departSpeed="0.00" departDelay="105.00" arrival="125.00" arrivalLane="gneE11_0" arrivalPos="76.83" arrivalSpeed="8.22" duration="20.00" routeLength="123.80" waitingTime="0.00" waitingCount="0" stopTime="0.00" timeLoss="6.53" rerouteNo="0" devices="tripinfo_carflow_22.1 routing_carflow_22.1" vType="car" speedFactor="0.90" vaporized=""/>
    <tripinfo id="carflow_22.2" depart="108.00" departLane="-gneE12_0" departPos="5.10" departSpeed="0.00" departDelay="108.00" arrival="128.00" arrivalLane="gneE11_0" arrivalPos="76.83" arrivalSpeed="7.80" duration="20.00" routeLength="123.80" waitingTime="0.00" waitingCount="0" stopTime="0.00" timeLoss="7.31" rerouteNo="0" devices="tripinfo_carflow_22.2 routing_carflow_22.2" vType="car" speedFactor="1.14" vaporized=""/>
    <tripinfo id="carflow_22.3" depart="111.00" departLane="-gneE12_0" departPos="5.10" departSpeed="0.00" departDelay="111.00" arrival="131.00" arrivalLane="gneE11_0" arrivalPos="76.83" arrivalSpeed="9.25" duration="20.00" routeLength="123.80" waitingTime="1.00" waitingCount="1" stopTime="0.00" timeLoss="7.37" rerouteNo="0" devices="tripinfo_carflow_22.3 routing_carflow_22.3" vType="car" speedFactor="1.02" vaporized=""/>
    <tripinfo id="carflow_22.4" depart="115.00" departLane="-gneE12_0" departPos="5.10" departSpeed="0.00" departDelay="115.00" arrival="135.00" arrivalLane="gneE11_0" arrivalPos="76.83" arrivalSpeed="8.81" duration="20.00" routeLength="123.80" waitingTime="0.00" waitingCount="0" stopTime="0.00" timeLoss="7.17" rerouteNo="0" devices="tripinfo_carflow_22.4 routing_carflow_22.4" vType="car" speedFactor="0.97" vaporized=""/>
    <tripinfo id="evflow_40.0" depart="119.00" departLane="-gneE12_0" departPos="7.10" departSpeed="0.00" departDelay="119.00" arrival="138.00" arrivalLane="gneE11_0" arrivalPos="76.83" arrivalSpeed="17.16" duration="19.00" routeLength="121.80" waitingTime="0.00" waitingCount="0" stopTime="0.00" timeLoss="12.14" rerouteNo="0" devices="tripinfo_evflow_40.0 routing_evflow_40.0" vType="ev" speedFactor="2.00" vaporized=""/>
    <tripinfo id="evflow_40.1" depart="124.00" departLane="-gneE12_0" departPos="7.10" departSpeed="0.00" departDelay="124.00" arrival="140.00" arrivalLane="gneE11_0" arrivalPos="76.83" arrivalSpeed="18.09" duration="16.00" routeLength="121.80" waitingTime="0.00" waitingCount="0" stopTime="0.00" timeLoss="9.58" rerouteNo="0" devices="tripinfo_evflow_40.1 routing_evflow_40.1" vType="ev" speedFactor="2.00" vaporized=""/>
    <tripinfo id="carflow_11.2" depart="31.00" departLane="-gneE9_0" departPos="5.10" departSpeed="0.00" departDelay="31.00" arrival="146.00" arrivalLane="gneE11_0" arrivalPos="76.83" arrivalSpeed="6.85" duration="115.00" routeLength="125.29" waitingTime="84.00" waitingCount="2" stopTime="0.00" timeLoss="101.90" rerouteNo="0" devices="tripinfo_carflow_11.2 routing_carflow_11.2" vType="car" speedFactor="1.18" vaporized=""/>
    <tripinfo id="carflow_32.2" depart="69.00" departLane="-gneE10_0" departPos="5.10" departSpeed="0.00" departDelay="69.00" arrival="149.00" arrivalLane="gneE11_0" arrivalPos="76.83" arrivalSpeed="9.07" duration="80.00" routeLength="173.82" waitingTime="44.00" waitingCount="1" stopTime="0.00" timeLoss="61.80" rerouteNo="0" devices="tripinfo_carflow_32.2 routing_carflow_32.2" vType="car" speedFactor="0.94" vaporized=""/>
    <tripinfo id="carflow_0.6" depart="17.00" departLane="-gneE11_0" departPos="5.10" departSpeed="0.00" departDelay="17.00" arrival="152.00" arrivalLane="gneE10_0" arrivalPos="87.42" arrivalSpeed="8.19" duration="135.00" routeLength="173.64" waitingTime="70.00" waitingCount="7" stopTime="0.00" timeLoss="116.88" rerouteNo="0" devices="tripinfo_carflow_0.6 routing_carflow_0.6" vType="car" speedFactor="1.05" vaporized=""/>
    <tripinfo id="carflow_32.3" depart="74.00" departLane="-gneE10_0" departPos="5.10" departSpeed="0.00" departDelay="74.00" arrival="152.00" arrivalLane="gneE11_0" arrivalPos="76.83" arrivalSpeed="9.28" duration="78.00" routeLength="173.82" waitingTime="42.00" waitingCount="1" stopTime="0.00" timeLoss="59.82" rerouteNo="0" devices="tripinfo_carflow_32.3 routing_carflow_32.3" vType="car" speedFactor="1.06" vaporized=""/>
    <tripinfo id="carflow_0.7" depart="22.00" departLane="-gneE11_0" departPos="5.10" departSpeed="0.00" departDelay="22.00" arrival="155.00" arrivalLane="gneE10_0" arrivalPos="87.42" arrivalSpeed="9.17" duration="133.00" routeLength="173.64" waitingTime="67.00" waitingCount="8" stopTime="0.00" timeLoss="115.51" rerouteNo="0" devices="tripinfo_carflow_0.7 routing_carflow_0.7" vType="car" speedFactor="0.89" vaporized=""/>
    <tripinfo id="carflow_32.4" depart="77.00" departLane="-gneE10_0" departPos="5.10" departSpeed="0.00" departDelay="77.00" arrival="156.00" arrivalLane="gneE11_0" arrivalPos="76.83" arrivalSpeed="8.62" duration="79.00" routeLength="173.82" waitingTime="41.00" waitingCount="3" stopTime="0.00" timeLoss="60.77" rerouteNo="0" devices="tripinfo_carflow_32.4 routing_carflow_32.4" vType="car" speedFactor="0.96" vaporized=""/>
    <tripinfo id="carflow_0.8" depart="26.00" departLane="-gneE11_0" departPos="5.10" departSpeed="0.00" departDelay="26.00" arrival="158.00" arrivalLane="gneE10_0" arrivalPos="87.42" arrivalSpeed="6.69" duration="132.00" routeLength="173.64" waitingTime="66.00" waitingCount="9" stopTime="0.00" timeLoss="114.49" rerouteNo="0" devices="tripinfo_carflow_0.8 routing_carflow_0.8" vType="car" speedFactor="0.94" vaporized=""/>
    <tripinfo id="evflow_30.0" depart="81.00" departLane="-gneE10_0" departPos="7.10" departSpeed="0.00" departDelay="81.00" arrival="159.00" arrivalLane="gneE11_0" arrivalPos="76.83" arrivalSpeed="12.40" duration="78.00" routeLength="171.82" waitingTime="37.00" waitingCount="5" stopTime="0.00" timeLoss="69.01" rerouteNo="0" devices="tripinfo_evflow_30.0 routing_evflow_30.0" vType="ev" speedFactor="2.00" vaporized=""/>
    <tripinfo id="evflow_30.1" depart="85.00" departLane="-gneE10_0" departPos="7.10" departSpeed="0.00" departDelay="85.00" arrival="161.00" arrivalLane="gneE11_0" arrivalPos="76.83" arrivalSpeed="12.97" duration="76.00" routeLength="171.82" waitingTime="35.00" waitingCount="4" stopTime="0.00" timeLoss="67.33" rerouteNo="0" devices="tripinfo_evflow_30.1 routing_evflow_30.1" vType="ev" speedFactor="2.00" vaporized=""/>
    <tripinfo id="evflow_31.0" depart="91.00" departLane="-gneE10_0" departPos="7.10" departSpeed="0.00" departDelay="91.00" arrival="161.00" arrivalLane="gneE9_0" arrivalPos="39.25" arrivalSpeed="16.74" duration="70.00" routeLength="133.90" waitingTime="33.00" waitingCount="2" stopTime="0.00" timeLoss="62.44" rerouteNo="0" devices="tripinfo_evflow_31.0 routing_evflow_31.0" vType="ev" speedFactor="2.00" vaporized=""/>
    <tripinfo id="carflow_0.9" depart="33.00" departLane="-gneE11_0" departPos="5.10" departSpeed="0.00" departDelay="33.00" arrival="162.00" arrivalLane="gneE10_0" arrivalPos="87.42" arrivalSpeed="8.97" duration="129.00" routeLength="173.64" waitingTime="65.00" waitingCount="10" stopTime="0.00" timeLoss="110.88" rerouteNo="0" devices="tripinfo_carflow_0.9 routing_carflow_0.9" vType="car" speedFactor="0.86" vaporized=""/>
    <tripinfo id="evflow_31.1" depart="97.00" departLane="-gneE10_0" departPos="7.10" departSpeed="0.00" departDelay="97.00" arrival="165.00" arrivalLane="gneE9_0" arrivalPos="39.25" arrivalSpeed="16.36" duration="68.00" routeLength="133.90" waitingTime="32.00" waitingCount="3" stopTime="0.00" timeLoss="60.82" rerouteNo="0" devices="tripinfo_evflow_31.1 routing_evflow_31.1" vType="ev" speedFactor="2.00" vaporized=""/>
    <tripinfo id="evflow_32.0" depart="101.00" departLane="-gneE10_0" departPos="7.10" departSpeed="0.00" departDelay="101.00" arrival="169.00" arrivalLane="gneE12_0" arrivalPos="42.58" arrivalSpeed="14.89" duration="68.00" routeLength="131.99" waitingTime="32.00" waitingCount="3" stopTime="0.00" timeLoss="60.63" rerouteNo="0" devices="tripinfo_evflow_32.0 routing_evflow_32.0" vType="ev" speedFactor="2.00" vaporized=""/>
    <tripinfo id="carflow_1.0" depart="64.00" departLane="-gneE11_0" departPos="5.10" departSpeed="0.00" departDelay="64.00" arrival="173.00" arrivalLane="gneE9_0" arrivalPos="39.25" arrivalSpeed="8.63" duration="109.00" routeLength="120.05" waitingTime="55.00" waitingCount="7" stopTime="0.00" timeLoss="96.15" rerouteNo="0" devices="tripinfo_carflow_1.0 routing_carflow_1.0" vType="car" speedFactor="1.09" vaporized=""/>
    <tripinfo id="evflow_32.1" depart="109.00" departLane="-gneE10_0" departPos="7.10" departSpeed="0.00" departDelay="109.00" arrival="173.00" arrivalLane="gneE12_0" arrivalPos="42.58" arrivalSpeed="14.70" duration="64.00" routeLength="131.99" waitingTime="29.00" waitingCount="2" stopTime="0.00" timeLoss="57.05" rerouteNo="0" devices="tripinfo_evflow_32.1 routing_evflow_32.1" vType="ev" speedFactor="2.00" vaporized=""/>
    <tripinfo id="carflow_1.1" depart="72.00" departLane="-gneE11_0" departPos="5.10" departSpeed="0.00" departDelay="72.00" arrival="176.00" arrivalLane="gneE9_0" arrivalPos="39.25" arrivalSpeed="7.53" duration="104.00" routeLength="120.05" waitingTime="43.00" waitingCount="6" stopTime="0.00" timeLoss="90.93" rerouteNo="0" devices="tripinfo_carflow_1.1 routing_carflow_1.1" vType="car" speedFactor="1.03" vaporized=""/>
    <tripinfo id="evflow_32.2" depart="147.00" departLane="-gneE10_0" departPos="7.10" departSpeed="0.00" departDelay="147.00" arrival="176.00" arrivalLane="gneE12_0" arrivalPos="42.58" arrivalSpeed="17.37" duration="29.00" routeLength="131.99" waitingTime="1.00" waitingCount="1" stopTime="0.00" timeLoss="21.87" rerouteNo="0" devices="tripinfo_evflow_32.2 routing_evflow_32.2" vType="ev" speedFactor="2.00" vaporized=""/>
    <tripinfo id="carflow_1.2" depart="77.00" departLane="-gneE11_0" departPos="5.10" departSpeed="0.00" departDelay="77.00" arrival="179.00" arrivalLane="gneE9_0" arrivalPos="39.25" arrivalSpeed="8.39" duration="102.00" routeLength="120.05" waitingTime="38.00" waitingCount="7" stopTime="0.00" timeLoss="89.34" rerouteNo="0" devices="tripinfo_carflow_1.2 routing_carflow_1.2" vType="car" speedFactor="1.05" vaporized=""/>
    <tripinfo id="carflow_1.3" depart="85.00" departLane="-gneE11_0" departPos="5.10" departSpeed="0.00" departDelay="85.00" arrival="183.00" arrivalLane="gneE9_0" arrivalPos="39.25" arrivalSpeed="8.07" duration="98.00" routeLength="120.05" waitingTime="38.00" waitingCount="9" stopTime="0.00" timeLoss="85.20" rerouteNo="0" devices="tripinfo_carflow_1.3 routing_carflow_1.3" vType="car" speedFactor="1.12" vaporized=""/>
    <tripinfo id="evflow_41.0" depart="128.00" departLane="-gneE12_0" departPos="7.10" departSpeed="0.00" departDelay="128.00" arrival="186.00" arrivalLane="gneE9_0" arrivalPos="39.25" arrivalSpeed="11.97" duration="58.00" routeLength="89.36" waitingTime="39.00" waitingCount="2" stopTime="0.00" timeLoss="53.12" rerouteNo="0" devices="tripinfo_evflow_41.0 routing_evflow_41.0" vType="ev" speedFactor="2.00" vaporized=""/>
    <tripinfo id="evflow_41.1" depart="131.00" departLane="-gneE12_0" departPos="7.10" departSpeed="0.00" departDelay="131.00" arrival="189.00" arrivalLane="gneE9_0" arrivalPos="39.25" arrivalSpeed="15.94" duration="58.00" routeLength="89.36" waitingTime="35.00" waitingCount="1" stopTime="0.00" timeLoss="52.92" rerouteNo="0" devices="tripinfo_evflow_41.1 routing_evflow_41.1" vType="ev" speedFactor="2.00" vaporized=""/>
    <tripinfo id="carflow_1.4" depart="100.00" departLane="-gneE11_0" departPos="5.10" departSpeed="0.00" departDelay="100.00" arrival="194.00" arrivalLane="gneE9_0" arrivalPos="39.25" arrivalSpeed="7.91" duration="94.00" routeLength="120.05" waitingTime="35.00" waitingCount="7" stopTime="0.00" timeLoss="80.85" rerouteNo="0" devices="tripinfo_carflow_1.4 routing_carflow_1.4" vType="car" speedFactor="0.99" vaporized=""/>
    <tripinfo id="evflow_42.0" depart="136.00" departLane="-gneE12_0" departPos="7.10" departSpeed="0.00" departDelay="136.00" arrival="196.00" arrivalLane="gneE10_0" arrivalPos="87.42" arrivalSpeed="16.03" duration="60.00" routeLength="137.20" waitingTime="35.00" waitingCount="1" stopTime="0.00" timeLoss="52.73" rerouteNo="0" devices="tripinfo_evflow_42.0 routing_evflow_42.0" vType="ev" speedFactor="2.00" vaporized=""/>
    <tripinfo id="carflow_1.5" depart="108.00" departLane="-gneE11_0" departPos="5.10" departSpeed="0.00" departDelay="108.00" arrival="197.00" arrivalLane="gneE9_0" arrivalPos="39.25" arrivalSpeed="7.64" duration="89.00" routeLength="120.05" waitingTime="33.00" waitingCount="5" stopTime="0.00" timeLoss="76.30" rerouteNo="0" devices="tripinfo_carflow_1.5 routing_carflow_1.5" vType="car" speedFactor="0.93" vaporized=""/>