<?xml version="1.0" encoding="UTF-8"?>

<!-- generated on Wed 19 Aug 2020 16:16:13 by Eclipse SUMO GUI Version 1.4.0
<configuration xmlns:xsi="http://www.w3.org/2001/XMLSchema-instance" xsi:noNamespaceSchemaLocation="http://sumo.dlr.de/xsd/sumoConfiguration.xsd">

    <input>
        <net-file value="4way.net.xml"/>
        <route-files value="4way.rou.xml"/>
        <additional-files value="4way.add.xml"/>
    </input>

    <output>
        <tripinfo-output value="tripinfo.xml"/>
    </output>

    <traci_server>
        <remote-port value="54619"/>
    </traci_server>

</configuration>
-->

<tripinfos xmlns:xsi="http://www.w3.org/2001/XMLSchema-instance" xsi:noNamespaceSchemaLocation="http://sumo.dlr.de/xsd/tripinfo_file.xsd">
    <tripinfo id="evflow_10.0" depart="0.00" departLane="-gneE9_0" departPos="7.10" departSpeed="0.00" departDelay="0.00" arrival="11.00" arrivalLane="gneE10_0" arrivalPos="87.42" arrivalSpeed="18.60" duration="11.00" routeLength="128.60" waitingTime="0.00" waitingCount="0" stopTime="0.00" timeLoss="3.58" rerouteNo="0" devices="tripinfo_evflow_10.0 routing_evflow_10.0" vType="ev" speedFactor="2.00" vaporized=""/>
    <tripinfo id="evflow_22.0" depart="7.00" departLane="-gneE9_0" departPos="7.10" departSpeed="0.00" departDelay="7.00" arrival="16.00" arrivalLane="gneE12_0" arrivalPos="42.58" arrivalSpeed="19.00" duration="9.00" routeLength="89.21" waitingTime="0.00" waitingCount="0" stopTime="0.00" timeLoss="4.30" rerouteNo="0" devices="tripinfo_evflow_22.0 routing_evflow_22.0" vType="ev" speedFactor="2.00" vaporized=""/>
    <tripinfo id="evflow_11.0" depart="3.00" departLane="-gneE9_0" departPos="7.10" departSpeed="0.00" departDelay="3.00" arrival="17.00" arrivalLane="gneE11_0" arrivalPos="76.83" arrivalSpeed="17.70" duration="14.00" routeLength="123.29" waitingTime="0.00" waitingCount="0" stopTime="0.00" timeLoss="7.11" rerouteNo="0" devices="tripinfo_evflow_11.0 routing_evflow_11.0" vType="ev" speedFactor="2.00" vaporized=""/>
    <tripinfo id="carflow_20.0" depart="0.00" departLane="-gneE12_0" departPos="5.10" departSpeed="0.00" departDelay="0.00" arrival="20.00" arrivalLane="gneE10_0" arrivalPos="87.42" arrivalSpeed="9.89" duration="20.00" routeLength="139.20" waitingTime="0.00" waitingCount="0" stopTime="0.00" timeLoss="5.29" rerouteNo="0" devices="tripinfo_carflow_20.0 routing_carflow_20.0" vType="car" speedFactor="1.09" vaporized=""/>
    <tripinfo id="carflow_10.0" depart="9.00" departLane="-gneE9_0" departPos="5.10" departSpeed="0.00" departDelay="9.00" arrival="29.00" arrivalLane="gneE10_0" arrivalPos="87.42" arrivalSpeed="7.51" duration="20.00" routeLength="130.60" waitingTime="0.00" waitingCount="0" stopTime="0.00" timeLoss="6.68" rerouteNo="0" devices="tripinfo_carflow_10.0 routing_carflow_10.0" vType="car" speedFactor="1.18" vaporized=""/>
    <tripinfo id="carflow_10.1" depart="13.00" departLane="-gneE9_0" departPos="5.10" departSpeed="0.00" departDelay="13.00" arrival="33.00" arrivalLane="gneE10_0" arrivalPos="87.42" arrivalSpeed="6.95" duration="20.00" routeLength="130.60" waitingTime="0.00" waitingCount="0" stopTime="0.00" timeLoss="6.35" rerouteNo="0" devices="tripinfo_carflow_10.1 routing_carflow_10.1" vType="car" speedFactor="1.15" vaporized=""/>
    <tripinfo id="carflow_10.2" depart="16.00" departLane="-gneE9_0" departPos="5.10" departSpeed="0.00" departDelay="16.00" arrival="37.00" arrivalLane="gneE10_0" arrivalPos="87.42" arrivalSpeed="8.38" duration="21.00" routeLength="130.60" waitingTime="0.00" waitingCount="0" stopTime="0.00" timeLoss="6.83" rerouteNo="0" devices="tripinfo_carflow_10.2 routing_carflow_10.2" vType="car" speedFactor="1.01" vaporized=""/>
    <tripinfo id="carflow_10.3" depart="19.00" departLane="-gneE9_0" departPos="5.10" departSpeed="0.00" departDelay="19.00" arrival="39.00" arrivalLane="gneE10_0" arrivalPos="87.42" arrivalSpeed="9.69" duration="20.00" routeLength="130.60" waitingTime="0.00" waitingCount="0" stopTime="0.00" timeLoss="6.62" rerouteNo="0" devices="tripinfo_carflow_10.3 routing_carflow_10.3" vType="car" speedFactor="1.17" vaporized=""/>
    <tripinfo id="carflow_10.4" depart="22.00" departLane="-gneE9_0" departPos="5.10" departSpeed="0.00" departDelay="22.00" arrival="43.00" arrivalLane="gneE10_0" arrivalPos="87.42" arrivalSpeed="8.23" duration="21.00" routeLength="130.60" waitingTime="0.00" waitingCount="0" stopTime="0.00" timeLoss="7.12" rerouteNo="0" devices="tripinfo_carflow_10.4 routing_carflow_10.4" vType="car" speedFactor="0.99" vaporized=""/>
    <tripinfo id="carflow_11.0" depart="25.00" departLane="-gneE9_0" departPos="5.10" departSpeed="0.00" departDelay="25.00" arrival="46.00" arrivalLane="gneE11_0" arrivalPos="76.83" arrivalSpeed="9.29" duration="21.00" routeLength="125.29" waitingTime="0.00" waitingCount="0" stopTime="0.00" timeLoss="7.29" rerouteNo="0" devices="tripinfo_carflow_11.0 routing_carflow_11.0" vType="car" speedFactor="1.02" vaporized=""/>
    <tripinfo id="carflow_20.1" depart="3.00" departLane="-gneE12_0" departPos="5.10" departSpeed="0.00" departDelay="3.00" arrival="46.00" arrivalLane="gneE10_0" arrivalPos="87.42" arrivalSpeed="6.71" duration="43.00" routeLength="139.20" waitingTime="15.00" waitingCount="1" stopTime="0.00" timeLoss="28.61" rerouteNo="0" devices="tripinfo_carflow_20.1 routing_carflow_20.1" vType="car" speedFactor="1.00" vaporized=""/>
    <tripinfo id="carflow_20.2" depart="6.00" departLane="-gneE12_0" departPos="5.10" departSpeed="0.00" departDelay="6.00" arrival="50.00" arrivalLane="gneE10_0" arrivalPos="87.42" arrivalSpeed="7.21" duration="44.00" routeLength="139.20" waitingTime="13.00" waitingCount="1" stopTime="0.00" timeLoss="29.40" rerouteNo="0" devices="tripinfo_carflow_20.2 routing_carflow_20.2" vType="car" speedFactor="0.90" vaporized=""/>
    <tripinfo id="carflow_11.1" depart="28.00" departLane="-gneE9_0" departPos="5.10" departSpeed="0.00" departDelay="28.00" arrival="51.00" arrivalLane="gneE11_0" arrivalPos="76.83" arrivalSpeed="9.44" duration="23.00" routeLength="125.29" waitingTime="0.00" waitingCount="0" stopTime="0.00" timeLoss="10.05" rerouteNo="0" devices="tripinfo_carflow_11.1 routing_carflow_11.1" vType="car" speedFactor="0.97" vaporized=""/>
    <tripinfo id="carflow_30.0" depart="0.00" departLane="-gneE10_0" departPos="5.10" departSpeed="0.00" departDelay="0.00" arrival="52.00" arrivalLane="gneE12_0" arrivalPos="42.58" arrivalSpeed="9.79" duration="52.00" routeLength="133.99" waitingTime="27.00" waitingCount="2" stopTime="0.00" timeLoss="38.12" rerouteNo="0" devices="tripinfo_carflow_30.0 routing_carflow_30.0" vType="car" speedFactor="1.08" vaporized=""/>
    <tripinfo id="carflow_20.3" depart="10.00" departLane="-gneE12_0" departPos="5.10" departSpeed="0.00" departDelay="10.00" arrival="55.00" arrivalLane="gneE10_0" arrivalPos="87.42" arrivalSpeed="7.30" duration="45.00" routeLength="139.20" waitingTime="13.00" waitingCount="2" stopTime="0.00" timeLoss="29.81" rerouteNo="0" devices="tripinfo_carflow_20.3 routing_carflow_20.3" vType="car" speedFactor="0.88" vaporized=""/>
    <tripinfo id="carflow_30.1" depart="3.00" departLane="-gneE10_0" departPos="5.10" departSpeed="0.00" departDelay="3.00" arrival="55.00" arrivalLane="gneE12_0" arrivalPos="42.58" arrivalSpeed="9.18" duration="52.00" routeLength="133.99" waitingTime="24.00" waitingCount="1" stopTime="0.00" timeLoss="37.77" rerouteNo="0" devices="tripinfo_carflow_30.1 routing_carflow_30.1" vType="car" speedFactor="1.12" vaporized=""/>
    <tripinfo id="carflow_0.0" depart="0.00" departLane="-gneE11_0" departPos="5.10" departSpeed="0.00" departDelay="0.00" arrival="60.00" arrivalLane="gneE10_0" arrivalPos="87.42" arrivalSpeed="7.03" duration="60.00" routeLength="173.64" waitingTime="30.00" waitingCount="1" stopTime="0.00" timeLoss="42.32" rerouteNo="0" devices="tripinfo_carflow_0.0 routing_carflow_0.0" vType="car" speedFactor="1.06" vaporized=""/>
    <tripinfo id="carflow_30.2" depart="8.00" departLane="-gneE10_0" departPos="5.10" departSpeed="0.00" departDelay="8.00" arrival="60.00" arrivalLane="gneE12_0" arrivalPos="42.58" arrivalSpeed="9.49" duration="52.00" routeLength="133.99" waitingTime="19.00" waitingCount="2" stopTime="0.00" timeLoss="37.72" rerouteNo="0" devices="tripinfo_carflow_30.2 routing_carflow_30.2" vType="car" speedFactor="1.02" vaporized=""/>
    <tripinfo id="carflow_0.1" depart="3.00" departLane="-gneE11_0" departPos="5.10" departSpeed="0.00" departDelay="3.00" arrival="63.00" arrivalLane="gneE10_0" arrivalPos="87.42" arrivalSpeed="7.80" duration="60.00" routeLength="173.64" waitingTime="27.00" waitingCount="2" stopTime="0.00" timeLoss="42.21" rerouteNo="0" devices="tripinfo_carflow_0.1 routing_carflow_0.1" vType="car" speedFactor="0.94" vaporized=""/>
    <tripinfo id="carflow_30.3" depart="12.00" departLane="-gneE10_0" departPos="5.10" departSpeed="0.00" departDelay="12.00" arrival="64.00" arrivalLane="gneE12_0" arrivalPos="42.58" arrivalSpeed="7.67" duration="52.00" routeLength="133.99" waitingTime="18.00" waitingCount="2" stopTime="0.00" timeLoss="37.93" rerouteNo="0" devices="tripinfo_carflow_30.3 routing_carflow_30.3" vType="car" speedFactor="0.99" vaporized=""/>
</tripinfos>
