<?xml version="1.0" encoding="UTF-8"?>

<!-- generated on 09/06/20 16:27:42 by Eclipse SUMO GUI Version 1.6.0
<configuration xmlns:xsi="http://www.w3.org/2001/XMLSchema-instance" xsi:noNamespaceSchemaLocation="http://sumo.dlr.de/xsd/sumoConfiguration.xsd">

    <input>
        <net-file value="4way.net.xml"/>
        <route-files value="4way.rou.xml"/>
        <additional-files value="4way.add.xml"/>
    </input>

    <output>
        <tripinfo-output value="tripinfo.xml"/>
    </output>

    <traci_server>
        <remote-port value="61185"/>
    </traci_server>

    <gui_only>
        <quit-on-end value="true"/>
        <start value="true"/>
    </gui_only>

</configuration>
-->

<tripinfos xmlns:xsi="http://www.w3.org/2001/XMLSchema-instance" xsi:noNamespaceSchemaLocation="http://sumo.dlr.de/xsd/tripinfo_file.xsd">
    <tripinfo id="0" depart="0.00" departLane="-gneE9_0" departPos="5.10" departSpeed="0.00" departDelay="0.00" arrival="15.00" arrivalLane="-gneE14_0" arrivalPos="76.83" arrivalSpeed="14.39" duration="15.00" routeLength="125.29" waitingTime="0.00" waitingCount="0" stopTime="0.00" timeLoss="5.52" rerouteNo="0" devices="tripinfo_0" vType="DEFAULT_VEHTYPE" speedFactor="1.06" vaporized=""/>
    <tripinfo id="5" depart="7.00" departLane="-gneE9_0" departPos="5.10" departSpeed="0.00" departDelay="2.00" arrival="17.00" arrivalLane="gneE12_0" arrivalPos="42.58" arrivalSpeed="13.05" duration="10.00" routeLength="91.21" waitingTime="0.00" waitingCount="0" stopTime="0.00" timeLoss="3.22" rerouteNo="0" devices="tripinfo_5" vType="DEFAULT_VEHTYPE" speedFactor="1.03" vaporized=""/>
    <tripinfo id="4" depart="4.00" departLane="-gneE9_0" departPos="5.10" departSpeed="0.00" departDelay="0.00" arrival="18.00" arrivalLane="gneE10_0" arrivalPos="87.42" arrivalSpeed="14.78" duration="14.00" routeLength="130.60" waitingTime="0.00" waitingCount="0" stopTime="0.00" timeLoss="4.44" rerouteNo="0" devices="tripinfo_4" vType="DEFAULT_VEHTYPE" speedFactor="1.08" vaporized=""/>
    <tripinfo id="3" depart="5.00" departLane="-gneE12_0" departPos="5.10" departSpeed="0.00" departDelay="2.00" arrival="23.00" arrivalLane="gneE9_0" arrivalPos="39.25" arrivalSpeed="13.96" duration="18.00" routeLength="91.36" waitingTime="1.00" waitingCount="1" stopTime="0.00" timeLoss="10.93" rerouteNo="0" devices="tripinfo_3" vType="DEFAULT_VEHTYPE" speedFactor="1.01" vaporized=""/>
    <tripinfo id="2" depart="2.00" departLane="-gneE12_0" departPos="5.10" departSpeed="0.00" departDelay="0.00" arrival="25.00" arrivalLane="gneE10_0" arrivalPos="87.42" arrivalSpeed="12.12" duration="23.00" routeLength="139.20" waitingTime="3.00" waitingCount="1" stopTime="0.00" timeLoss="10.59" rerouteNo="0" devices="tripinfo_2" vType="DEFAULT_VEHTYPE" speedFactor="0.94" vaporized=""/>
    <tripinfo id="16" depart="16.00" departLane="-gneE12_0" departPos="5.10" departSpeed="0.00" departDelay="0.00" arrival="26.00" arrivalLane="gneE9_0" arrivalPos="39.25" arrivalSpeed="13.82" duration="10.00" routeLength="91.36" waitingTime="0.00" waitingCount="0" stopTime="0.00" timeLoss="3.67" rerouteNo="0" devices="tripinfo_16" vType="DEFAULT_VEHTYPE" speedFactor="1.05" vaporized=""/>
    <tripinfo id="11" depart="11.00" departLane="-gneE12_0" departPos="5.10" departSpeed="0.00" departDelay="0.00" arrival="30.00" arrivalLane="gneE10_0" arrivalPos="87.42" arrivalSpeed="11.87" duration="19.00" routeLength="139.20" waitingTime="0.00" waitingCount="0" stopTime="0.00" timeLoss="6.30" rerouteNo="0" devices="tripinfo_11" vType="DEFAULT_VEHTYPE" speedFactor="0.89" vaporized=""/>
    <tripinfo id="10" depart="10.00" departLane="-gneE9_0" departPos="5.10" departSpeed="0.00" departDelay="0.00" arrival="34.00" arrivalLane="-gneE14_0" arrivalPos="76.83" arrivalSpeed="13.66" duration="24.00" routeLength="125.29" waitingTime="5.00" waitingCount="1" stopTime="0.00" timeLoss="13.72" rerouteNo="0" devices="tripinfo_10" vType="DEFAULT_VEHTYPE" speedFactor="1.05" vaporized=""/>
    <tripinfo id="17" depart="19.00" departLane="-gneE12_0" departPos="5.10" departSpeed="0.00" departDelay="2.00" arrival="35.00" arrivalLane="gneE10_0" arrivalPos="87.42" arrivalSpeed="15.51" duration="16.00" routeLength="139.20" waitingTime="0.00" waitingCount="0" stopTime="0.00" timeLoss="5.59" rerouteNo="0" devices="tripinfo_17" vType="DEFAULT_VEHTYPE" speedFactor="1.12" vaporized=""/>
    <tripinfo id="18" depart="22.00" departLane="-gneE12_0" departPos="5.10" departSpeed="0.00" departDelay="4.00" arrival="37.00" arrivalLane="-gneE14_0" arrivalPos="76.83" arrivalSpeed="12.96" duration="15.00" routeLength="123.80" waitingTime="0.00" waitingCount="0" stopTime="0.00" timeLoss="5.05" rerouteNo="0" devices="tripinfo_18" vType="DEFAULT_VEHTYPE" speedFactor="0.99" vaporized=""/>
    <tripinfo id="19" depart="25.00" departLane="-gneE12_0" departPos="5.10" departSpeed="0.00" departDelay="6.00" arrival="40.00" arrivalLane="-gneE14_0" arrivalPos="76.83" arrivalSpeed="12.55" duration="15.00" routeLength="123.80" waitingTime="0.00" waitingCount="0" stopTime="0.00" timeLoss="4.81" rerouteNo="0" devices="tripinfo_19" vType="DEFAULT_VEHTYPE" speedFactor="0.93" vaporized=""/>
    <tripinfo id="30" depart="30.00" departLane="-gneE9_0" departPos="5.10" departSpeed="0.00" departDelay="0.00" arrival="47.00" arrivalLane="gneE10_0" arrivalPos="87.42" arrivalSpeed="11.74" duration="17.00" routeLength="130.60" waitingTime="0.00" waitingCount="0" stopTime="0.00" timeLoss="5.16" rerouteNo="0" devices="tripinfo_30" vType="DEFAULT_VEHTYPE" speedFactor="0.89" vaporized=""/>
    <tripinfo id="12" depart="12.00" departLane="-gneE10_0" departPos="5.10" departSpeed="0.00" departDelay="0.00" arrival="55.00" arrivalLane="gneE12_0" arrivalPos="42.58" arrivalSpeed="11.77" duration="43.00" routeLength="133.99" waitingTime="22.00" waitingCount="1" stopTime="0.00" timeLoss="31.48" rerouteNo="0" devices="tripinfo_12" vType="DEFAULT_VEHTYPE" speedFactor="0.94" vaporized=""/>
    <tripinfo id="14" depart="14.00" departLane="gneE14_0" departPos="5.10" departSpeed="0.00" departDelay="0.00" arrival="55.00" arrivalLane="gneE10_0" arrivalPos="87.42" arrivalSpeed="14.90" duration="41.00" routeLength="173.64" waitingTime="20.00" waitingCount="1" stopTime="0.00" timeLoss="29.12" rerouteNo="0" devices="tripinfo_14" vType="DEFAULT_VEHTYPE" speedFactor="1.09" vaporized=""/>
    <tripinfo id="8" depart="8.00" departLane="-gneE10_0" departPos="5.10" departSpeed="0.00" departDelay="0.00" arrival="56.00" arrivalLane="-gneE14_0" arrivalPos="76.83" arrivalSpeed="10.91" duration="48.00" routeLength="173.82" waitingTime="23.00" waitingCount="1" stopTime="0.00" timeLoss="32.07" rerouteNo="0" devices="tripinfo_8" vType="DEFAULT_VEHTYPE" speedFactor="0.83" vaporized=""/>
    <tripinfo id="15" depart="17.00" departLane="gneE14_0" departPos="5.10" departSpeed="0.00" departDelay="2.00" arrival="57.00" arrivalLane="gneE10_0" arrivalPos="87.42" arrivalSpeed="13.42" duration="40.00" routeLength="173.64" waitingTime="17.00" waitingCount="1" stopTime="0.00" timeLoss="27.47" rerouteNo="0" devices="tripinfo_15" vType="DEFAULT_VEHTYPE" speedFactor="1.03" vaporized=""/>
    <tripinfo id="13" depart="15.00" departLane="-gneE10_0" departPos="5.10" departSpeed="0.00" departDelay="2.00" arrival="60.00" arrivalLane="-gneE14_0" arrivalPos="76.83" arrivalSpeed="10.66" duration="45.00" routeLength="173.82" waitingTime="21.00" waitingCount="1" stopTime="0.00" timeLoss="29.83" rerouteNo="0" devices="tripinfo_13" vType="DEFAULT_VEHTYPE" speedFactor="0.86" vaporized=""/>
    <tripinfo id="22" depart="22.00" departLane="-gneE10_0" departPos="5.10" departSpeed="0.00" departDelay="0.00" arrival="62.00" arrivalLane="-gneE14_0" arrivalPos="76.83" arrivalSpeed="12.90" duration="40.00" routeLength="173.82" waitingTime="14.00" waitingCount="1" stopTime="0.00" timeLoss="25.79" rerouteNo="0" devices="tripinfo_22" vType="DEFAULT_VEHTYPE" speedFactor="0.94" vaporized=""/>
    <tripinfo id="24" depart="25.00" departLane="-gneE10_0" departPos="5.10" departSpeed="0.00" departDelay="1.00" arrival="63.00" arrivalLane="-gneE14_0" arrivalPos="76.83" arrivalSpeed="14.15" duration="38.00" routeLength="173.82" waitingTime="12.00" waitingCount="1" stopTime="0.00" timeLoss="26.96" rerouteNo="0" devices="tripinfo_24" vType="DEFAULT_VEHTYPE" speedFactor="1.16" vaporized=""/>
    <tripinfo id="25" depart="28.00" departLane="-gneE10_0" departPos="5.10" departSpeed="0.00" departDelay="3.00" arrival="63.00" arrivalLane="gneE9_0" arrivalPos="39.25" arrivalSpeed="13.90" duration="35.00" routeLength="135.90" waitingTime="11.00" waitingCount="1" stopTime="0.00" timeLoss="24.74" rerouteNo="0" devices="tripinfo_25" vType="DEFAULT_VEHTYPE" speedFactor="1.02" vaporized=""/>
    <tripinfo id="26" depart="31.00" departLane="-gneE10_0" departPos="5.10" departSpeed="0.00" departDelay="5.00" arrival="68.00" arrivalLane="-gneE14_0" arrivalPos="76.83" arrivalSpeed="13.93" duration="37.00" routeLength="173.82" waitingTime="10.00" waitingCount="1" stopTime="0.00" timeLoss="23.95" rerouteNo="0" devices="tripinfo_26" vType="DEFAULT_VEHTYPE" speedFactor="1.01" vaporized=""/>
    <tripinfo id="21" depart="21.00" departLane="gneE14_0" departPos="5.10" departSpeed="0.00" departDelay="0.00" arrival="69.00" arrivalLane="gneE12_0" arrivalPos="42.58" arrivalSpeed="11.15" duration="48.00" routeLength="128.70" waitingTime="23.00" waitingCount="2" stopTime="0.00" timeLoss="36.38" rerouteNo="0" devices="tripinfo_21" vType="DEFAULT_VEHTYPE" speedFactor="0.88" vaporized=""/>
    <tripinfo id="23" depart="24.00" departLane="gneE14_0" departPos="5.10" departSpeed="0.00" departDelay="1.00" arrival="75.00" arrivalLane="gneE10_0" arrivalPos="87.42" arrivalSpeed="12.25" duration="51.00" routeLength="173.64" waitingTime="22.00" waitingCount="2" stopTime="0.00" timeLoss="37.33" rerouteNo="0" devices="tripinfo_23" vType="DEFAULT_VEHTYPE" speedFactor="0.94" vaporized=""/>
    <tripinfo id="28" depart="28.00" departLane="gneE14_0" departPos="5.10" departSpeed="0.00" departDelay="0.00" arrival="77.00" arrivalLane="gneE10_0" arrivalPos="87.42" arrivalSpeed="13.05" duration="49.00" routeLength="173.64" waitingTime="19.00" waitingCount="2" stopTime="0.00" timeLoss="35.78" rerouteNo="0" devices="tripinfo_28" vType="DEFAULT_VEHTYPE" speedFactor="0.98" vaporized=""/>
    <tripinfo id="37" depart="37.00" departLane="gneE14_0" departPos="5.10" departSpeed="0.00" departDelay="0.00" arrival="79.00" arrivalLane="gneE10_0" arrivalPos="87.42" arrivalSpeed="11.74" duration="42.00" routeLength="173.64" waitingTime="10.00" waitingCount="2" stopTime="0.00" timeLoss="28.15" rerouteNo="0" devices="tripinfo_37" vType="DEFAULT_VEHTYPE" speedFactor="0.93" vaporized=""/>
    <tripinfo id="43" depart="43.00" departLane="gneE14_0" departPos="5.10" departSpeed="0.00" departDelay="0.00" arrival="81.00" arrivalLane="gneE10_0" arrivalPos="87.42" arrivalSpeed="13.76" duration="38.00" routeLength="173.64" waitingTime="5.00" waitingCount="1" stopTime="0.00" timeLoss="24.95" rerouteNo="0" devices="tripinfo_43" vType="DEFAULT_VEHTYPE" speedFactor="1.02" vaporized=""/>
    <tripinfo id="44" depart="46.00" departLane="gneE14_0" departPos="5.10" departSpeed="0.00" departDelay="2.00" arrival="81.00" arrivalLane="gneE9_0" arrivalPos="39.25" arrivalSpeed="12.50" duration="35.00" routeLength="120.05" waitingTime="6.00" waitingCount="1" stopTime="0.00" timeLoss="24.71" rerouteNo="0" devices="tripinfo_44" vType="DEFAULT_VEHTYPE" speedFactor="0.97" vaporized=""/>
    <tripinfo id="53" depart="53.00" departLane="gneE14_0" departPos="5.10" departSpeed="0.00" departDelay="0.00" arrival="83.00" arrivalLane="gneE9_0" arrivalPos="39.25" arrivalSpeed="14.04" duration="30.00" routeLength="120.05" waitingTime="6.00" waitingCount="1" stopTime="0.00" timeLoss="21.23" rerouteNo="0" devices="tripinfo_53" vType="DEFAULT_VEHTYPE" speedFactor="1.09" vaporized=""/>
    <tripinfo id="66" depart="66.00" departLane="gneE14_0" departPos="5.10" departSpeed="0.00" departDelay="0.00" arrival="85.00" arrivalLane="gneE9_0" arrivalPos="39.25" arrivalSpeed="14.46" duration="19.00" routeLength="120.05" waitingTime="0.00" waitingCount="0" stopTime="0.00" timeLoss="10.65" rerouteNo="0" devices="tripinfo_66" vType="DEFAULT_VEHTYPE" speedFactor="1.17" vaporized=""/>
    <tripinfo id="70" depart="70.00" departLane="gneE14_0" departPos="5.10" departSpeed="0.00" departDelay="0.00" arrival="89.00" arrivalLane="gneE12_0" arrivalPos="42.58" arrivalSpeed="13.82" duration="19.00" routeLength="128.70" waitingTime="0.00" waitingCount="0" stopTime="0.00" timeLoss="8.39" rerouteNo="0" devices="tripinfo_70" vType="DEFAULT_VEHTYPE" speedFactor="1.00" vaporized=""/>
    <tripinfo id="73" depart="73.00" departLane="gneE14_0" departPos="5.10" departSpeed="0.00" departDelay="0.00" arrival="93.00" arrivalLane="gneE10_0" arrivalPos="87.42" arrivalSpeed="15.80" duration="20.00" routeLength="173.64" waitingTime="0.00" waitingCount="0" stopTime="0.00" timeLoss="8.37" rerouteNo="0" devices="tripinfo_73" vType="DEFAULT_VEHTYPE" speedFactor="1.14" vaporized=""/>
    <tripinfo id="31" depart="34.00" departLane="-gneE10_0" departPos="5.10" departSpeed="0.00" departDelay="3.00" arrival="94.00" arrivalLane="gneE9_0" arrivalPos="39.25" arrivalSpeed="10.97" duration="60.00" routeLength="135.90" waitingTime="31.00" waitingCount="2" stopTime="0.00" timeLoss="46.84" rerouteNo="0" devices="tripinfo_31" vType="DEFAULT_VEHTYPE" speedFactor="0.83" vaporized=""/>
    <tripinfo id="39" depart="39.00" departLane="-gneE12_0" departPos="5.10" departSpeed="0.00" departDelay="0.00" arrival="98.00" arrivalLane="-gneE14_0" arrivalPos="76.83" arrivalSpeed="15.75" duration="59.00" routeLength="123.80" waitingTime="43.00" waitingCount="1" stopTime="0.00" timeLoss="50.79" rerouteNo="0" devices="tripinfo_39" vType="DEFAULT_VEHTYPE" speedFactor="1.15" vaporized=""/>
    <tripinfo id="38" depart="38.00" departLane="-gneE9_0" departPos="5.10" departSpeed="0.00" departDelay="0.00" arrival="99.00" arrivalLane="gneE10_0" arrivalPos="87.42" arrivalSpeed="16.08" duration="61.00" routeLength="130.60" waitingTime="43.00" waitingCount="1" stopTime="0.00" timeLoss="52.04" rerouteNo="0" devices="tripinfo_38" vType="DEFAULT_VEHTYPE" speedFactor="1.18" vaporized=""/>
    <tripinfo id="41" depart="41.00" departLane="-gneE9_0" departPos="5.10" departSpeed="0.00" departDelay="0.00" arrival="101.00" arrivalLane="gneE10_0" arrivalPos="87.42" arrivalSpeed="16.11" duration="60.00" routeLength="130.60" waitingTime="42.00" waitingCount="1" stopTime="0.00" timeLoss="51.04" rerouteNo="0" devices="tripinfo_41" vType="DEFAULT_VEHTYPE" speedFactor="1.17" vaporized=""/>
    <tripinfo id="42" depart="42.00" departLane="-gneE12_0" departPos="5.10" departSpeed="0.00" departDelay="0.00" arrival="103.00" arrivalLane="gneE10_0" arrivalPos="87.42" arrivalSpeed="13.62" duration="61.00" routeLength="139.20" waitingTime="40.00" waitingCount="1" stopTime="0.00" timeLoss="50.28" rerouteNo="0" devices="tripinfo_42" vType="DEFAULT_VEHTYPE" speedFactor="0.99" vaporized=""/>
    <tripinfo id="60" depart="60.00" departLane="-gneE12_0" departPos="5.10" departSpeed="0.00" departDelay="0.00" arrival="104.00" arrivalLane="gneE9_0" arrivalPos="39.25" arrivalSpeed="13.26" duration="44.00" routeLength="91.36" waitingTime="27.00" waitingCount="1" stopTime="0.00" timeLoss="36.88" rerouteNo="0" devices="tripinfo_60" vType="DEFAULT_VEHTYPE" speedFactor="1.00" vaporized=""/>
    <tripinfo id="55" depart="55.00" departLane="-gneE12_0" departPos="5.10" departSpeed="0.00" departDelay="0.00" arrival="106.00" arrivalLane="gneE10_0" arrivalPos="87.42" arrivalSpeed="14.17" duration="51.00" routeLength="139.20" waitingTime="30.00" waitingCount="1" stopTime="0.00" timeLoss="39.95" rerouteNo="0" devices="tripinfo_55" vType="DEFAULT_VEHTYPE" speedFactor="1.04" vaporized=""/>
    <tripinfo id="64" depart="95.00" departLane="-gneE12_0" departPos="5.10" departSpeed="0.00" departDelay="31.00" arrival="110.00" arrivalLane="gneE9_0" arrivalPos="39.25" arrivalSpeed="10.77" duration="15.00" routeLength="91.36" waitingTime="0.00" waitingCount="0" stopTime="0.00" timeLoss="6.67" rerouteNo="0" devices="tripinfo_64" vType="DEFAULT_VEHTYPE" speedFactor="0.85" vaporized=""/>
    <tripinfo id="63" depart="63.00" departLane="-gneE12_0" departPos="5.10" departSpeed="0.00" departDelay="0.00" arrival="112.00" arrivalLane="gneE10_0" arrivalPos="87.42" arrivalSpeed="11.91" duration="49.00" routeLength="139.20" waitingTime="26.00" waitingCount="1" stopTime="0.00" timeLoss="36.61" rerouteNo="0" devices="tripinfo_63" vType="DEFAULT_VEHTYPE" speedFactor="0.88" vaporized=""/>
    <tripinfo id="65" depart="98.00" departLane="-gneE12_0" departPos="5.10" departSpeed="0.00" departDelay="33.00" arrival="116.00" arrivalLane="-gneE14_0" arrivalPos="76.83" arrivalSpeed="11.61" duration="18.00" routeLength="123.80" waitingTime="0.00" waitingCount="0" stopTime="0.00" timeLoss="6.42" rerouteNo="0" devices="tripinfo_65" vType="DEFAULT_VEHTYPE" speedFactor="0.85" vaporized=""/>
    <tripinfo id="74" depart="105.00" departLane="-gneE12_0" departPos="5.10" departSpeed="0.00" departDelay="31.00" arrival="117.00" arrivalLane="gneE9_0" arrivalPos="39.25" arrivalSpeed="13.88" duration="12.00" routeLength="91.36" waitingTime="0.00" waitingCount="0" stopTime="0.00" timeLoss="4.61" rerouteNo="0" devices="tripinfo_74" vType="DEFAULT_VEHTYPE" speedFactor="1.02" vaporized=""/>
    <tripinfo id="71" depart="102.00" departLane="-gneE12_0" departPos="5.10" departSpeed="0.00" departDelay="31.00" arrival="120.00" arrivalLane="gneE10_0" arrivalPos="87.42" arrivalSpeed="11.72" duration="18.00" routeLength="139.20" waitingTime="0.00" waitingCount="0" stopTime="0.00" timeLoss="5.63" rerouteNo="0" devices="tripinfo_71" vType="DEFAULT_VEHTYPE" speedFactor="0.90" vaporized=""/>
    <tripinfo id="81" depart="108.00" departLane="-gneE12_0" departPos="5.10" departSpeed="0.00" departDelay="27.00" arrival="123.00" arrivalLane="-gneE14_0" arrivalPos="76.83" arrivalSpeed="12.91" duration="15.00" routeLength="123.80" waitingTime="0.00" waitingCount="0" stopTime="0.00" timeLoss="5.09" rerouteNo="0" devices="tripinfo_81" vType="DEFAULT_VEHTYPE" speedFactor="0.99" vaporized=""/>
    <tripinfo id="88" depart="111.00" departLane="-gneE12_0" departPos="5.10" departSpeed="0.00" departDelay="23.00" arrival="126.00" arrivalLane="-gneE14_0" arrivalPos="76.83" arrivalSpeed="13.03" duration="15.00" routeLength="123.80" waitingTime="0.00" waitingCount="0" stopTime="0.00" timeLoss="5.01" rerouteNo="0" devices="tripinfo_88" vType="DEFAULT_VEHTYPE" speedFactor="1.02" vaporized=""/>
    <tripinfo id="108" depart="114.00" departLane="-gneE12_0" departPos="5.10" departSpeed="0.00" departDelay="6.00" arrival="129.00" arrivalLane="-gneE14_0" arrivalPos="76.83" arrivalSpeed="12.52" duration="15.00" routeLength="123.80" waitingTime="0.00" waitingCount="0" stopTime="0.00" timeLoss="5.29" rerouteNo="0" devices="tripinfo_108" vType="DEFAULT_VEHTYPE" speedFactor="0.98" vaporized=""/>
    <tripinfo id="51" depart="51.00" departLane="-gneE9_0" departPos="5.10" departSpeed="0.00" departDelay="0.00" arrival="131.00" arrivalLane="-gneE14_0" arrivalPos="76.83" arrivalSpeed="13.10" duration="80.00" routeLength="125.29" waitingTime="58.00" waitingCount="2" stopTime="0.00" timeLoss="70.47" rerouteNo="0" devices="tripinfo_51" vType="DEFAULT_VEHTYPE" speedFactor="1.03" vaporized=""/>
    <tripinfo id="52" depart="54.00" departLane="-gneE9_0" departPos="5.10" departSpeed="0.00" departDelay="2.00" arrival="134.00" arrivalLane="-gneE14_0" arrivalPos="76.83" arrivalSpeed="12.29" duration="80.00" routeLength="125.29" waitingTime="57.00" waitingCount="2" stopTime="0.00" timeLoss="69.46" rerouteNo="0" devices="tripinfo_52" vType="DEFAULT_VEHTYPE" speedFactor="0.96" vaporized=""/>
    <tripinfo id="116" depart="117.00" departLane="-gneE12_0" departPos="5.10" departSpeed="0.00" departDelay="1.00" arrival="134.00" arrivalLane="gneE10_0" arrivalPos="87.42" arrivalSpeed="12.19" duration="17.00" routeLength="139.20" waitingTime="0.00" waitingCount="0" stopTime="0.00" timeLoss="4.61" rerouteNo="0" devices="tripinfo_116" vType="DEFAULT_VEHTYPE" speedFactor="0.89" vaporized=""/>
    <tripinfo id="59" depart="59.00" departLane="-gneE9_0" departPos="5.10" departSpeed="0.00" departDelay="0.00" arrival="136.00" arrivalLane="-gneE14_0" arrivalPos="76.83" arrivalSpeed="13.99" duration="77.00" routeLength="125.29" waitingTime="54.00" waitingCount="2" stopTime="0.00" timeLoss="67.77" rerouteNo="0" devices="tripinfo_59" vType="DEFAULT_VEHTYPE" speedFactor="1.09" vaporized=""/>
    <tripinfo id="126" depart="126.00" departLane="-gneE12_0" departPos="5.10" departSpeed="0.00" departDelay="0.00" arrival="139.00" arrivalLane="-gneE14_0" arrivalPos="76.83" arrivalSpeed="14.85" duration="13.00" routeLength="123.80" waitingTime="0.00" waitingCount="0" stopTime="0.00" timeLoss="4.39" rerouteNo="0" devices="tripinfo_126" vType="DEFAULT_VEHTYPE" speedFactor="1.12" vaporized=""/>
    <tripinfo id="61" depart="96.00" departLane="-gneE9_0" departPos="5.10" departSpeed="0.00" departDelay="35.00" arrival="143.00" arrivalLane="-gneE14_0" arrivalPos="76.83" arrivalSpeed="11.91" duration="47.00" routeLength="125.29" waitingTime="24.00" waitingCount="2" stopTime="0.00" timeLoss="35.60" rerouteNo="0" devices="tripinfo_61" vType="DEFAULT_VEHTYPE" speedFactor="0.90" vaporized=""/>
    <tripinfo id="33" depart="37.00" departLane="-gneE10_0" departPos="5.10" departSpeed="0.00" departDelay="4.00" arrival="146.00" arrivalLane="gneE9_0" arrivalPos="39.25" arrivalSpeed="11.11" duration="109.00" routeLength="135.90" waitingTime="76.00" waitingCount="4" stopTime="0.00" timeLoss="96.50" rerouteNo="0" devices="tripinfo_33" vType="DEFAULT_VEHTYPE" speedFactor="0.87" vaporized=""/>
    <tripinfo id="76" depart="76.00" departLane="gneE14_0" departPos="5.10" departSpeed="0.00" departDelay="0.00" arrival="146.00" arrivalLane="gneE10_0" arrivalPos="87.42" arrivalSpeed="14.58" duration="70.00" routeLength="173.64" waitingTime="45.00" waitingCount="1" stopTime="0.00" timeLoss="57.91" rerouteNo="0" devices="tripinfo_76" vType="DEFAULT_VEHTYPE" speedFactor="1.08" vaporized=""/>
    <tripinfo id="34" depart="40.00" departLane="-gneE10_0" departPos="5.10" departSpeed="0.00" departDelay="6.00" arrival="152.00" arrivalLane="-gneE14_0" arrivalPos="76.83" arrivalSpeed="11.53" duration="112.00" routeLength="173.82" waitingTime="74.00" waitingCount="3" stopTime="0.00" timeLoss="97.72" rerouteNo="0" devices="tripinfo_34" vType="DEFAULT_VEHTYPE" speedFactor="0.92" vaporized=""/>
    <tripinfo id="36" depart="57.00" departLane="-gneE10_0" departPos="5.10" departSpeed="0.00" departDelay="21.00" arrival="153.00" arrivalLane="gneE12_0" arrivalPos="42.58" arrivalSpeed="14.57" duration="96.00" routeLength="133.99" waitingTime="62.00" waitingCount="3" stopTime="0.00" timeLoss="85.73" rerouteNo="0" devices="tripinfo_36" vType="DEFAULT_VEHTYPE" speedFactor="1.13" vaporized=""/>
    <tripinfo id="35" depart="43.00" departLane="-gneE10_0" departPos="5.10" departSpeed="0.00" departDelay="8.00" arrival="154.00" arrivalLane="-gneE14_0" arrivalPos="76.83" arrivalSpeed="12.68" duration="111.00" routeLength="173.82" waitingTime="73.00" waitingCount="3" stopTime="0.00" timeLoss="96.91" rerouteNo="0" devices="tripinfo_35" vType="DEFAULT_VEHTYPE" speedFactor="0.95" vaporized=""/>
    <tripinfo id="40" depart="61.00" departLane="-gneE10_0" departPos="5.10" departSpeed="0.00" departDelay="21.00" arrival="155.00" arrivalLane="gneE12_0" arrivalPos="42.58" arrivalSpeed="13.28" duration="94.00" routeLength="133.99" waitingTime="63.00" waitingCount="2" stopTime="0.00" timeLoss="83.83" rerouteNo="0" devices="tripinfo_40" vType="DEFAULT_VEHTYPE" speedFactor="1.01" vaporized=""/>
    <tripinfo id="46" depart="64.00" departLane="-gneE10_0" departPos="5.10" departSpeed="0.00" departDelay="18.00" arrival="158.00" arrivalLane="gneE12_0" arrivalPos="42.58" arrivalSpeed="14.17" duration="94.00" routeLength="133.99" waitingTime="64.00" waitingCount="2" stopTime="0.00" timeLoss="84.47" rerouteNo="0" devices="tripinfo_46" vType="DEFAULT_VEHTYPE" speedFactor="1.18" vaporized=""/>
    <tripinfo id="47" depart="67.00" departLane="-gneE10_0" departPos="5.10" departSpeed="0.00" departDelay="20.00" arrival="160.00" arrivalLane="gneE12_0" arrivalPos="42.58" arrivalSpeed="13.23" duration="93.00" routeLength="133.99" waitingTime="61.00" waitingCount="2" stopTime="0.00" timeLoss="83.65" rerouteNo="0" devices="tripinfo_47" vType="DEFAULT_VEHTYPE" speedFactor="1.10" vaporized=""/>
    <tripinfo id="49" depart="70.00" departLane="-gneE10_0" departPos="5.10" departSpeed="0.00" departDelay="21.00" arrival="164.00" arrivalLane="gneE12_0" arrivalPos="42.58" arrivalSpeed="12.03" duration="94.00" routeLength="133.99" waitingTime="61.00" waitingCount="2" stopTime="0.00" timeLoss="81.79" rerouteNo="0" devices="tripinfo_49" vType="DEFAULT_VEHTYPE" speedFactor="0.90" vaporized=""/>
    <tripinfo id="57" depart="73.00" departLane="-gneE10_0" departPos="5.10" departSpeed="0.00" departDelay="16.00" arrival="166.00" arrivalLane="gneE12_0" arrivalPos="42.58" arrivalSpeed="12.88" duration="93.00" routeLength="133.99" waitingTime="61.00" waitingCount="2" stopTime="0.00" timeLoss="82.61" rerouteNo="0" devices="tripinfo_57" vType="DEFAULT_VEHTYPE" speedFactor="1.04" vaporized=""/>
    <tripinfo id="67" depart="76.00" departLane="-gneE10_0" departPos="5.10" departSpeed="0.00" departDelay="9.00" arrival="170.00" arrivalLane="-gneE14_0" arrivalPos="76.83" arrivalSpeed="13.03" duration="94.00" routeLength="173.82" waitingTime="60.00" waitingCount="2" stopTime="0.00" timeLoss="81.38" rerouteNo="0" devices="tripinfo_67" vType="DEFAULT_VEHTYPE" speedFactor="1.02" vaporized=""/>
    <tripinfo id="69" depart="79.00" departLane="-gneE10_0" departPos="5.10" departSpeed="0.00" departDelay="10.00" arrival="170.00" arrivalLane="gneE9_0" arrivalPos="39.25" arrivalSpeed="13.32" duration="91.00" routeLength="135.90" waitingTime="62.00" waitingCount="1" stopTime="0.00" timeLoss="80.59" rerouteNo="0" devices="tripinfo_69" vType="DEFAULT_VEHTYPE" speedFactor="1.00" vaporized=""/>
    <tripinfo id="79" depart="79.00" departLane="gneE14_0" departPos="5.10" departSpeed="0.00" departDelay="0.00" arrival="172.00" arrivalLane="gneE12_0" arrivalPos="42.58" arrivalSpeed="13.97" duration="93.00" routeLength="128.70" waitingTime="66.00" waitingCount="2" stopTime="0.00" timeLoss="83.54" rerouteNo="0" devices="tripinfo_79" vType="DEFAULT_VEHTYPE" speedFactor="1.12" vaporized=""/>
    <tripinfo id="75" depart="148.00" departLane="-gneE10_0" departPos="5.10" departSpeed="0.00" departDelay="73.00" arrival="174.00" arrivalLane="gneE12_0" arrivalPos="42.58" arrivalSpeed="12.57" duration="26.00" routeLength="133.99" waitingTime="0.00" waitingCount="0" stopTime="0.00" timeLoss="15.00" rerouteNo="0" devices="tripinfo_75" vType="DEFAULT_VEHTYPE" speedFactor="0.97" vaporized=""/>
    <tripinfo id="80" depart="154.00" departLane="-gneE10_0" departPos="5.10" departSpeed="0.00" departDelay="74.00" arrival="178.00" arrivalLane="-gneE14_0" arrivalPos="76.83" arrivalSpeed="13.66" duration="24.00" routeLength="173.82" waitingTime="0.00" waitingCount="0" stopTime="0.00" timeLoss="11.22" rerouteNo="0" devices="tripinfo_80" vType="DEFAULT_VEHTYPE" speedFactor="1.02" vaporized=""/>
    <tripinfo id="82" depart="157.00" departLane="-gneE10_0" departPos="5.10" departSpeed="0.00" departDelay="75.00" arrival="180.00" arrivalLane="-gneE14_0" arrivalPos="76.83" arrivalSpeed="12.39" duration="23.00" routeLength="173.82" waitingTime="0.00" waitingCount="0" stopTime="0.00" timeLoss="9.25" rerouteNo="0" devices="tripinfo_82" vType="DEFAULT_VEHTYPE" speedFactor="0.94" vaporized=""/>
    <tripinfo id="84" depart="160.00" departLane="-gneE10_0" departPos="5.10" departSpeed="0.00" departDelay="76.00" arrival="182.00" arrivalLane="-gneE14_0" arrivalPos="76.83" arrivalSpeed="11.65" duration="22.00" routeLength="173.82" waitingTime="0.00" waitingCount="0" stopTime="0.00" timeLoss="7.52" rerouteNo="0" devices="tripinfo_84" vType="DEFAULT_VEHTYPE" speedFactor="0.88" vaporized=""/>
    <tripinfo id="85" depart="163.00" departLane="-gneE10_0" departPos="5.10" departSpeed="0.00" departDelay="78.00" arrival="184.00" arrivalLane="gneE12_0" arrivalPos="42.58" arrivalSpeed="12.50" duration="21.00" routeLength="133.99" waitingTime="0.00" waitingCount="0" stopTime="0.00" timeLoss="8.74" rerouteNo="0" devices="tripinfo_85" vType="DEFAULT_VEHTYPE" speedFactor="0.91" vaporized=""/>
    <tripinfo id="89" depart="89.00" departLane="gneE14_0" departPos="5.10" departSpeed="0.00" departDelay="0.00" arrival="187.00" arrivalLane="gneE12_0" arrivalPos="42.58" arrivalSpeed="13.05" duration="98.00" routeLength="128.70" waitingTime="66.00" waitingCount="3" stopTime="0.00" timeLoss="87.44" rerouteNo="0" devices="tripinfo_89" vType="DEFAULT_VEHTYPE" speedFactor="1.02" vaporized=""/>
    <tripinfo id="68" depart="99.00" departLane="-gneE9_0" departPos="5.10" departSpeed="0.00" departDelay="31.00" arrival="189.00" arrivalLane="gneE10_0" arrivalPos="87.42" arrivalSpeed="14.60" duration="90.00" routeLength="130.60" waitingTime="67.00" waitingCount="2" stopTime="0.00" timeLoss="80.67" rerouteNo="0" devices="tripinfo_68" vType="DEFAULT_VEHTYPE" speedFactor="1.10" vaporized=""/>
    <tripinfo id="87" depart="102.00" departLane="-gneE9_0" departPos="5.10" departSpeed="0.00" departDelay="15.00" arrival="192.00" arrivalLane="gneE10_0" arrivalPos="87.42" arrivalSpeed="13.17" duration="90.00" routeLength="130.60" waitingTime="64.00" waitingCount="2" stopTime="0.00" timeLoss="79.97" rerouteNo="0" devices="tripinfo_87" vType="DEFAULT_VEHTYPE" speedFactor="1.04" vaporized=""/>